/*--------------------------------*- C++ -*----------------------------------*\
| =========                 |                                                 |
| \\      /  F ield         | OpenFOAM: The Open Source CFD Toolbox           |
|  \\    /   O peration     | Version:  v2012                                 |
|   \\  /    A nd           | Website:  www.openfoam.com                      |
|    \\/     M anipulation  |                                                 |
\*---------------------------------------------------------------------------*/
FoamFile
{
    version     2.0;
    format      ascii;
    class       volScalarField;
    location    "0.2";
    object      p;
}
// * * * * * * * * * * * * * * * * * * * * * * * * * * * * * * * * * * * * * //

dimensions      [0 2 -2 0 0 0 0];


internalField   nonuniform List<scalar> 
8000
(
-6.58081e-11
-0.00111284
-0.00124944
-0.00109173
-0.000811577
-0.000720083
-0.000632776
-0.00127741
-0.00111309
-0.000789755
-0.000113866
5.09017e-05
-0.000270216
0.000875939
0.00113052
0.0014631
0.00175644
0.00237066
0.00315134
0.00477904
5.80974e-07
-0.00111475
-0.00124724
-0.00109376
-0.000810092
-0.000722403
-0.000634841
-0.00128443
-0.00110564
-0.000790697
-0.000115974
5.0388e-05
-0.000258487
0.000853428
0.00113856
0.0014154
0.00176254
0.00233644
0.00315233
0.00459501
-6.7228e-08
-0.00111689
-0.00124509
-0.00109735
-0.000807611
-0.0007253
-0.000640566
-0.00128934
-0.00110155
-0.000790984
-0.000110997
4.44769e-05
-0.000247087
0.000826826
0.00114624
0.00136935
0.00177281
0.00229748
0.00313928
0.0043643
-2.31923e-06
-0.00111891
-0.00124268
-0.00110253
-0.000804103
-0.00072718
-0.000648173
-0.00129187
-0.00109922
-0.000787538
-0.000103607
3.14957e-05
-0.000233597
0.000797065
0.00115393
0.00132328
0.00178146
0.00226353
0.00310142
0.00415539
-5.78113e-06
-0.00112063
-0.00123998
-0.00110942
-0.000799067
-0.000728337
-0.000655923
-0.00129208
-0.00109652
-0.00078224
-9.5933e-05
1.60625e-05
-0.000218984
0.000764711
0.0011636
0.0012744
0.00179009
0.00222616
0.00304288
0.00397364
-9.98437e-06
-0.001122
-0.00123706
-0.00111754
-0.000792814
-0.00072904
-0.000662572
-0.00129045
-0.00109304
-0.000776166
-8.80069e-05
3.08801e-08
-0.000205599
0.000731622
0.00117306
0.00122542
0.00179674
0.00218346
0.00297186
0.00380517
-1.45493e-05
-0.00112308
-0.00123405
-0.00112642
-0.000785855
-0.00072934
-0.000667867
-0.0012878
-0.00108858
-0.000769732
-8.00925e-05
-1.61846e-05
-0.000193669
0.000698398
0.00118145
0.001178
0.001797
0.00213987
0.00288965
0.00364114
-1.92374e-05
-0.00112405
-0.001231
-0.00113575
-0.000778606
-0.000729321
-0.000672104
-0.00128473
-0.00108305
-0.000763337
-7.23454e-05
-3.19951e-05
-0.000183398
0.000665589
0.00118821
0.00113198
0.00178971
0.00209702
0.00279485
0.00347948
-2.39444e-05
-0.00112505
-0.00122798
-0.00114532
-0.000771335
-0.000729049
-0.000675636
-0.00128164
-0.00107663
-0.00075712
-6.48225e-05
-4.70671e-05
-0.000175111
0.000633861
0.00119221
0.00108816
0.00177503
0.00205384
0.00268819
0.00332039
-2.86428e-05
-0.00112618
-0.00122501
-0.00115498
-0.000764184
-0.000728557
-0.000678746
-0.00127882
-0.00106948
-0.000751074
-5.78218e-05
-6.10892e-05
-0.000169004
0.000603673
0.00119285
0.00104757
0.00175224
0.00200914
0.00257223
0.00316314
-3.33357e-05
-0.00112748
-0.00122211
-0.00116462
-0.00075724
-0.000727859
-0.000681629
-0.00127643
-0.0010618
-0.000745172
-5.16434e-05
-7.36927e-05
-0.000165462
0.000575545
0.00118992
0.00101029
0.00172077
0.00196254
0.00244961
0.00300622
-3.80334e-05
-0.00112898
-0.00121931
-0.00117414
-0.000750565
-0.000726948
-0.000684406
-0.00127447
-0.00105382
-0.000739284
-4.65634e-05
-8.46007e-05
-0.000164849
0.000549842
0.00118306
0.000975842
0.00168097
0.00191368
0.00232215
0.0028486
-4.2748e-05
-0.00113067
-0.00121663
-0.00118349
-0.000744204
-0.000725805
-0.000687173
-0.00127289
-0.00104574
-0.000733192
-4.29287e-05
-9.35529e-05
-0.000167341
0.00052653
0.00117194
0.000943828
0.00163371
0.00186163
0.00219116
0.00269016
-4.74947e-05
-0.00113252
-0.00121409
-0.00119262
-0.000738193
-0.000724386
-0.000690022
-0.00127156
-0.00103781
-0.00072665
-4.10489e-05
-0.000100358
-0.000173066
0.000505325
0.0011566
0.000913687
0.00157988
0.00180541
0.00205802
0.00253113
-5.22917e-05
-0.00113453
-0.00121173
-0.0012015
-0.000732576
-0.000722633
-0.000693047
-0.00127037
-0.00103031
-0.000719406
-4.1144e-05
-0.000104944
-0.000182112
0.000485945
0.00113744
0.000884361
0.00152033
0.00174457
0.00192402
0.00237165
-5.71597e-05
-0.00113666
-0.00120958
-0.00121007
-0.000727408
-0.000720475
-0.000696346
-0.00126915
-0.0010235
-0.000711223
-4.34122e-05
-0.000107305
-0.00019432
0.000468202
0.001115
0.000854565
0.00145595
0.00167909
0.00178997
0.00221187
-6.21213e-05
-0.00113888
-0.00120768
-0.0012183
-0.000722748
-0.000717833
-0.000700034
-0.00126775
-0.00101763
-0.000701905
-4.79739e-05
-0.000107633
-0.000209434
0.000458838
0.00109009
0.000823128
0.00138757
0.00160913
0.00165633
0.00205218
-6.72022e-05
-0.00114115
-0.00120604
-0.00122614
-0.000718659
-0.000714618
-0.000704246
-0.00126603
-0.00101292
-0.000691332
-5.48367e-05
-0.000106214
-0.0002272
0.000443158
0.00106369
0.000789153
0.00131568
0.00153523
0.00152357
0.00189293
-7.24307e-05
-0.00114341
-0.00120477
-0.00123354
-0.000715211
-0.000710734
-0.00070912
-0.00126387
-0.00100953
-0.000679471
-6.39248e-05
-0.000103281
-0.000246918
0.000424706
0.00103668
0.000752202
0.00124031
0.00145812
0.00139219
0.00173437
-7.78392e-05
-0.00114563
-0.00120393
-0.00124045
-0.000712483
-0.000706092
-0.000714782
-0.00126116
-0.00100758
-0.000666375
-7.50702e-05
-9.93874e-05
-0.000267626
0.000403111
0.00100966
0.000712155
0.00116123
0.00137856
0.00126271
0.00157677
-8.34656e-05
-0.00114774
-0.00120358
-0.00124681
-0.00071055
-0.000700598
-0.000721351
-0.00125784
-0.00100713
-0.000652146
-8.79456e-05
-9.53684e-05
-0.000288309
0.000377749
0.000982732
0.00066929
0.00107826
0.00129711
0.00113567
0.00142042
-8.93505e-05
-0.00114967
-0.00120377
-0.00125257
-0.000709486
-0.000694162
-0.000728922
-0.0012539
-0.0010082
-0.000636985
-0.000101962
-9.20399e-05
-0.000308006
0.000348129
0.000955472
0.000624396
0.000991339
0.00121401
0.00101164
0.00126567
-9.55373e-05
-0.00115135
-0.00120458
-0.00125766
-0.000709364
-0.000686724
-0.000737546
-0.00124938
-0.00101068
-0.00062126
-0.000116474
-9.03247e-05
-0.000326093
0.000314063
0.000927266
0.000578419
0.000900538
0.00112928
0.00089117
0.00111289
-0.000102076
-0.00115271
-0.0012061
-0.00126203
-0.000710251
-0.000678249
-0.000747219
-0.0012444
-0.00101431
-0.000605475
-0.000130799
-9.10958e-05
-0.000342364
0.000275881
0.00089738
0.000532085
0.000806073
0.00104289
0.000774786
0.000962512
-0.000109022
-0.00115365
-0.0012084
-0.00126563
-0.000712195
-0.000668725
-0.000757893
-0.00123913
-0.00101883
-0.000590252
-0.000144184
-9.48046e-05
-0.0003569
0.000234199
0.000865001
0.000485789
0.000708258
0.000954822
0.000663077
0.000814967
-0.000116432
-0.00115408
-0.00121156
-0.00126843
-0.000715227
-0.000658182
-0.000769477
-0.00123381
-0.00102381
-0.000576298
-0.00015612
-0.000101518
-0.000370171
0.000189856
0.000829618
0.000439724
0.000607401
0.000865088
0.000556739
0.000670762
-0.000124367
-0.0011539
-0.00121566
-0.00127041
-0.000719335
-0.000646692
-0.000781803
-0.00122879
-0.00102867
-0.00056426
-0.000166463
-0.000111087
-0.000382959
0.000143822
0.000790989
0.000394048
0.000503974
0.000773431
0.000456196
0.000530603
-0.000132904
-0.00115299
-0.0012208
-0.00127156
-0.000724485
-0.000634378
-0.000794621
-0.00122452
-0.00103281
-0.000554523
-0.000175329
-0.000123197
-0.000396236
9.67391e-05
0.000749142
0.000348867
0.000398593
0.000679407
0.000361476
0.000395323
-0.000142113
-0.00115126
-0.0012269
-0.00127188
-0.000730615
-0.000621436
-0.000807592
-0.00122146
-0.00103585
-0.00054716
-0.00018314
-0.000137186
-0.000410681
4.85017e-05
0.000704173
0.000304347
0.000291989
0.000582545
0.000272253
0.000265677
-0.000152064
-0.00114859
-0.00123429
-0.00127116
-0.000737612
-0.000608112
-0.000820272
-0.00122012
-0.00103762
-0.000542046
-0.000190507
-0.000152277
-0.000426517
-1.23169e-06
0.000656104
0.000260949
0.000184951
0.000482327
0.000187976
0.000142324
-0.00016284
-0.00114486
-0.00124286
-0.00127
-0.00074527
-0.000594717
-0.000832191
-0.00122092
-0.00103818
-0.00053882
-0.000198126
-0.000168068
-0.000443711
-5.28996e-05
0.000604832
0.000219127
7.82992e-05
0.000378437
0.000107969
2.57214e-05
-0.000174528
-0.00113997
-0.00125262
-0.00126835
-0.000753382
-0.000581602
-0.000842844
-0.00122408
-0.00103784
-0.000536884
-0.00020667
-0.000184602
-0.000461854
-0.000106522
0.000549981
0.000179008
-2.67468e-05
0.000271101
3.13128e-05
-8.41698e-05
-0.000187213
-0.00113383
-0.00126352
-0.00126637
-0.000761759
-0.000569127
-0.00085172
-0.00122969
-0.00103716
-0.00053557
-0.000216581
-0.000202043
-0.000480483
-0.000161991
0.000490942
0.000140337
-0.000128646
0.000161108
-4.29417e-05
-0.000187788
-0.000200984
-0.00112634
-0.00127551
-0.00126424
-0.000770053
-0.000557739
-0.000858475
-0.00123765
-0.00103689
-0.000534154
-0.000228021
-0.000220885
-0.000499258
-0.0002191
0.000427256
0.000102371
-0.00022623
4.94424e-05
-0.00011538
-0.000285547
-0.000215919
-0.00111742
-0.00128849
-0.00126227
-0.0007779
-0.000547871
-0.000863002
-0.00124756
-0.0010378
-0.000532116
-0.000240863
-0.000242017
-0.000518051
-0.000276779
0.000358958
6.42245e-05
-0.00031904
-6.30899e-05
-0.000186107
-0.000377609
-0.000232094
-0.00110701
-0.00130225
-0.00126087
-0.000784994
-0.000539753
-0.000865333
-0.00125881
-0.00104064
-0.000529498
-0.000254578
-0.0002661
-0.000537104
-0.000333748
0.000286313
2.50363e-05
-0.000407037
-0.000176017
-0.000254952
-0.000463719
-0.000249592
-0.00109512
-0.00131653
-0.00126047
-0.000791011
-0.00053348
-0.000865667
-0.00127073
-0.00104613
-0.000526666
-0.000268332
-0.000293426
-0.00055702
-0.000389015
0.000209868
-1.58976e-05
-0.000490125
-0.000289292
-0.000322119
-0.000543213
-0.00026848
-0.00108174
-0.001331
-0.00126152
-0.000795651
-0.000529112
-0.000864439
-0.00128247
-0.00105476
-0.000524192
-0.000281155
-0.00032389
-0.00057916
-0.000442044
0.000130888
-5.91483e-05
-0.000568291
-0.000403002
-0.000388717
-0.000615547
-0.000288828
-0.00106691
-0.0013453
-0.00126448
-0.000798742
-0.000526521
-0.0008622
-0.00129331
-0.00106666
-0.000522846
-0.000292324
-0.000357258
-0.000604561
-0.000492711
5.12967e-05
-0.000105026
-0.000641923
-0.000516968
-0.000456335
-0.000680723
-0.000310683
-0.0010507
-0.00135902
-0.00126981
-0.000800306
-0.000525349
-0.000859574
-0.00130258
-0.00108153
-0.000523812
-0.000301666
-0.000392762
-0.000633414
-0.000541234
-2.70135e-05
-0.000153111
-0.000711671
-0.000630744
-0.00052633
-0.000739375
-0.000334073
-0.00103325
-0.00137165
-0.00127795
-0.000800448
-0.000525169
-0.000857308
-0.0013098
-0.00109876
-0.000528316
-0.000309376
-0.000428756
-0.000668239
-0.00058932
-0.000103027
-0.000202226
-0.000777955
-0.000743991
-0.000599757
-0.000792693
-0.000359016
-0.00101476
-0.00138265
-0.00128924
-0.00079945
-0.000525307
-0.000856071
-0.0013151
-0.00111748
-0.000537095
-0.00031604
-0.000463561
-0.000707713
-0.000639213
-0.00017699
-0.000250675
-0.00084043
-0.000856656
-0.000677519
-0.000842126
-0.000385493
-0.000995458
-0.0013915
-0.00130391
-0.000797806
-0.000524972
-0.000856375
-0.00131884
-0.00113677
-0.00055062
-0.000322562
-0.000495998
-0.000751303
-0.000692351
-0.000249893
-0.000296979
-0.000897803
-0.000968656
-0.000760536
-0.000889251
-0.000413464
-0.000973884
-0.0013977
-0.00132195
-0.000796187
-0.000523548
-0.000858519
-0.00132137
-0.00115552
-0.000568889
-0.000330307
-0.000525521
-0.000797409
-0.000749138
-0.000323356
-0.00034084
-0.000948223
-0.00107915
-0.00084978
-0.000935815
-0.000442903
-0.000953921
-0.00140072
-0.00134328
-0.000795475
-0.000520319
-0.000862398
-0.00132356
-0.00117283
-0.000591426
-0.000340973
-0.000552187
-0.00084341
-0.000808797
-0.000399444
-0.000383811
-0.000989686
-0.00118588
-0.000945998
-0.000983759
-0.000473769
-0.000934096
-0.00140009
-0.00136775
-0.00079658
-0.000514643
-0.000867659
-0.00132665
-0.00118839
-0.000617303
-0.000355844
-0.00057656
-0.000887276
-0.000870193
-0.000479359
-0.000428334
-0.00102108
-0.00128531
-0.00104918
-0.00103537
-0.000505956
-0.000914763
-0.00139546
-0.00139496
-0.000800512
-0.000506275
-0.000873635
-0.00133179
-0.00120218
-0.000645106
-0.000375702
-0.000599786
-0.000928089
-0.000931785
-0.000562675
-0.000477354
-0.00104367
-0.00137334
-0.00115738
-0.00109295
-0.000539307
-0.000896344
-0.0013866
-0.00142432
-0.000808352
-0.000495195
-0.000879334
-0.00134003
-0.0012146
-0.000673168
-0.000400807
-0.000623651
-0.000965509
-0.000991382
-0.000647589
-0.000533686
-0.00106144
-0.00144657
-0.001266
-0.00115751
-0.000573646
-0.00087927
-0.00137339
-0.00145509
-0.000821103
-0.000481667
-0.00088352
-0.00135205
-0.00122656
-0.000699901
-0.000430754
-0.000649961
-0.000999849
-0.00104701
-0.000731971
-0.000598302
-0.00107932
-0.00150423
-0.00136927
-0.00122797
-0.000608768
-0.000863922
-0.00135584
-0.0014865
-0.000839661
-0.000466188
-0.000884844
-0.00136796
-0.0012395
-0.000724251
-0.000464564
-0.000678552
-0.00103171
-0.00109768
-0.000813566
-0.000669657
-0.00110244
-0.00154931
-0.00146185
-0.00130106
-0.000644432
-0.000850685
-0.00133414
-0.00151755
-0.000864658
-0.000449604
-0.000882077
-0.00138864
-0.00125528
-0.000745806
-0.000500259
-0.000713647
-0.00106265
-0.00114335
-0.000890079
-0.000744336
-0.00113454
-0.00158735
-0.00154074
-0.00137194
-0.000680366
-0.000839938
-0.00130864
-0.00154712
-0.00089642
-0.000433204
-0.000874219
-0.00141223
-0.00127567
-0.000764904
-0.000535071
-0.000754538
-0.00109508
-0.00118456
-0.00096007
-0.000818821
-0.00117588
-0.00162492
-0.00160749
-0.00143568
-0.00071629
-0.00083205
-0.00127752
-0.00157405
-0.000935041
-0.000418497
-0.000860566
-0.00143705
-0.00130221
-0.000782492
-0.000566362
-0.000799868
-0.00113172
-0.00122221
-0.00102313
-0.000890006
-0.00122292
-0.00166778
-0.00166797
-0.00148979
-0.00075192
-0.000827388
-0.00124574
-0.00159727
-0.000980368
-0.000407173
-0.000840655
-0.00146162
-0.00133577
-0.000800173
-0.000592405
-0.000848057
-0.00117505
-0.00125774
-0.00107922
-0.00095582
-0.00127098
-0.00171767
-0.00172917
-0.00153632
-0.000786941
-0.0008262
-0.00121208
-0.00161565
-0.00103182
-0.000400981
-0.000814512
-0.00148406
-0.00137705
-0.000820219
-0.000612399
-0.000896324
-0.00122647
-0.00129344
-0.00112826
-0.00101559
-0.00131615
-0.00177165
-0.00179742
-0.00158073
-0.000821064
-0.000828639
-0.00117743
-0.00162822
-0.00108849
-0.000401714
-0.000782811
-0.00150195
-0.00142582
-0.000845583
-0.000625561
-0.000940264
-0.00128588
-0.00133267
-0.0011704
-0.00106926
-0.0013558
-0.0018241
-0.00187569
-0.00163042
-0.000854016
-0.00083479
-0.00114271
-0.00163431
-0.00114926
-0.000410996
-0.00074661
-0.00151319
-0.001481
-0.000878909
-0.00063346
-0.000975392
-0.00135128
-0.00137955
-0.0012066
-0.00111617
-0.00138989
-0.0018699
-0.0019611
-0.00169213
-0.000885544
-0.000844627
-0.00110896
-0.00163343
-0.00121266
-0.000430135
-0.000707418
-0.00151604
-0.00154077
-0.000922558
-0.000638593
-0.000998378
-0.00141893
-0.001438
-0.00123944
-0.00115448
-0.00142001
-0.00190614
-0.00204577
-0.0017683
-0.000915428
-0.000858003
-0.00107726
-0.00162538
-0.00127696
-0.00046017
-0.000667295
-0.00150901
-0.00160283
-0.00097773
-0.000644532
-0.00100788
-0.00148385
-0.00151013
-0.0012738
-0.00118215
-0.00144633
-0.00193411
-0.00212237
-0.00185516
-0.000943498
-0.000874718
-0.0010486
-0.00161013
-0.00134037
-0.000501727
-0.00062858
-0.00149124
-0.00166431
-0.00104456
-0.000655312
-0.00100483
-0.00153976
-0.00159483
-0.00131657
-0.00119918
-0.00146576
-0.0019575
-0.00218729
-0.00194537
-0.000969664
-0.000894479
-0.00102382
-0.00158812
-0.00140107
-0.00055479
-0.000593756
-0.00146261
-0.00172205
-0.00112217
-0.000674837
-0.000992077
-0.00158052
-0.00168738
-0.00137504
-0.00120931
-0.00147303
-0.00197786
-0.00224236
-0.00203196
-0.00099388
-0.000916865
-0.00100367
-0.00156015
-0.00145717
-0.00061863
-0.000565427
-0.00142382
-0.00177293
-0.00120882
-0.000706179
-0.000973326
-0.00160207
-0.00178096
-0.00145391
-0.00122024
-0.00146377
-0.00199177
-0.0022928
-0.00211167
-0.00101615
-0.00094138
-0.000988805
-0.00152719
-0.00150701
-0.000692101
-0.000546042
-0.0013763
-0.00181414
-0.00130223
-0.000751267
-0.0009533
-0.00160364
-0.00186755
-0.00155292
-0.00124255
-0.00143834
-0.00199122
-0.00234196
-0.00218678
-0.00103655
-0.000967501
-0.000979603
-0.00149061
-0.00154923
-0.000773462
-0.000537793
-0.00132219
-0.00184331
-0.00139943
-0.00081083
-0.000937037
-0.00158754
-0.00193896
-0.00166638
-0.00128653
-0.00140401
-0.0019668
-0.00238607
-0.00226266
-0.0010552
-0.000994643
-0.000976266
-0.00145201
-0.00158275
-0.000860391
-0.000542466
-0.0012644
-0.00185886
-0.00149697
-0.000884477
-0.00092895
-0.00155789
-0.00198886
-0.00178538
-0.00135796
-0.00137306
-0.00191365
-0.0024138
-0.0023423
-0.00107229
-0.00102214
-0.000978815
-0.00141297
-0.00160699
-0.000950379
-0.000561221
-0.00120607
-0.00185991
-0.00159121
-0.000970816
-0.000932355
-0.00151978
-0.00201466
-0.00190033
-0.00145553
-0.00135978
-0.00183695
-0.00241066
-0.00242188
-0.00108802
-0.0010495
-0.000987071
-0.00137508
-0.00162175
-0.00104071
-0.000594457
-0.00115062
-0.00184649
-0.00167843
-0.00106756
-0.000949349
-0.00147893
-0.00201739
-0.00200193
-0.00157167
-0.00137544
-0.00175071
-0.00236579
-0.00249028
-0.00110262
-0.00107628
-0.00100065
-0.00133983
-0.00162732
-0.00112858
-0.000641672
-0.00110153
-0.00181965
-0.00175524
-0.00117191
-0.000980933
-0.00144087
-0.0020007
-0.00208302
-0.00169602
-0.00142372
-0.00167308
-0.00227969
-0.00253299
-0.00111636
-0.00110202
-0.00101898
-0.00130854
-0.00162437
-0.00121149
-0.000701668
-0.00106182
-0.00178139
-0.00181891
-0.00128051
-0.00102713
-0.00141011
-0.00196946
-0.00213992
-0.00181857
-0.00150017
-0.00162155
-0.00216705
-0.00253805
-0.00112948
-0.00112646
-0.00104135
-0.00128227
-0.00161405
-0.00128743
-0.000772586
-0.00103389
-0.0017347
-0.00186752
-0.00138966
-0.00108707
-0.00138971
-0.00192928
-0.00217228
-0.00193071
-0.00159517
-0.00160645
-0.0020498
-0.00250247
-0.00114224
-0.00114941
-0.00106689
-0.00126177
-0.00159789
-0.00135485
-0.000851888
-0.0010194
-0.0016832
-0.00190009
-0.00149543
-0.00115909
-0.00138141
-0.00188605
-0.00218227
-0.00202646
-0.00169851
-0.00162825
-0.00195142
-0.00243483
-0.00115488
-0.0011708
-0.00109472
-0.00124754
-0.00157766
-0.00141275
-0.000936632
-0.00101913
-0.00163083
-0.00191677
-0.00159402
-0.00124094
-0.00138589
-0.00184503
-0.00217394
-0.00210256
-0.00180175
-0.00167975
-0.00188902
-0.00235115
-0.00116761
-0.00119072
-0.00112394
-0.0012397
-0.0015552
-0.00146075
-0.0010237
-0.00103301
-0.00158136
-0.00191886
-0.00168206
-0.00132982
-0.00140307
-0.0018101
-0.00215227
-0.00215796
-0.00189888
-0.00175018
-0.00186848
-0.00227
-0.0011806
-0.00120926
-0.00115372
-0.00123809
-0.00153231
-0.00149902
-0.00111005
-0.00106012
-0.00153811
-0.00190853
-0.00175696
-0.00142243
-0.00143235
-0.00178359
-0.00212288
-0.00219345
-0.00198633
-0.00182919
-0.00188505
-0.0022065
-0.00119399
-0.00122657
-0.00118335
-0.00124233
-0.00151066
-0.00152814
-0.00119299
-0.00109884
-0.00150367
-0.00188881
-0.00181718
-0.00151509
-0.00147264
-0.00176661
-0.00209115
-0.00221131
-0.00206207
-0.00190896
-0.00192716
-0.00216819
-0.00120784
-0.00124288
-0.00121224
-0.00125177
-0.00149165
-0.00154915
-0.0012704
-0.00114704
-0.00147969
-0.00186317
-0.0018624
-0.00160406
-0.00152241
-0.00175947
-0.00206146
-0.00221485
-0.00212474
-0.00198464
-0.00198186
-0.00215479
-0.0012222
-0.0012584
-0.00123996
-0.00126563
-0.00147633
-0.00156334
-0.00134077
-0.0012022
-0.0014669
-0.00183521
-0.00189348
-0.00168595
-0.00157954
-0.00176199
-0.00203673
-0.00220823
-0.00217353
-0.00205379
-0.0020392
-0.00216082
-0.00123707
-0.00127337
-0.00126626
-0.00128304
-0.00146533
-0.00157225
-0.00140326
-0.00126164
-0.00146525
-0.00180814
-0.00191228
-0.00175814
-0.00164141
-0.00177369
-0.00201849
-0.00219592
-0.00220846
-0.00211506
-0.00209348
-0.00217934
-0.00125242
-0.001288
-0.00129103
-0.00130313
-0.00145897
-0.00157747
-0.00145757
-0.00132279
-0.00147389
-0.00178453
-0.00192123
-0.00181909
-0.00170501
-0.00179373
-0.00200727
-0.00218194
-0.00223065
-0.00216741
-0.00214263
-0.00220431
-0.00126819
-0.00130248
-0.00131424
-0.00132505
-0.00145724
-0.00158051
-0.00150392
-0.00138334
-0.00149147
-0.0017662
-0.00192314
-0.00186848
-0.0017673
-0.0018209
-0.00200291
-0.00216926
-0.00224247
-0.00221013
-0.00218646
-0.00223163
-0.00128431
-0.00131695
-0.001336
-0.00134803
-0.0014599
-0.0015827
-0.00154295
-0.00144143
-0.00151631
-0.00175418
-0.00192078
-0.00190702
-0.00182562
-0.00185359
-0.00200492
-0.00215967
-0.00224705
-0.0022431
-0.00222515
-0.002259
-0.00130069
-0.00133154
-0.00135644
-0.00137142
-0.00146647
-0.00158512
-0.00157556
-0.00149569
-0.00154655
-0.00174884
-0.00191663
-0.00193609
-0.00187804
-0.00188988
-0.00201264
-0.00215392
-0.00224759
-0.00226707
-0.00225863
-0.00228525
-0.00131724
-0.00134631
-0.00137574
-0.00139472
-0.00147639
-0.00158858
-0.00160279
-0.00154527
-0.00158031
-0.00175
-0.00191258
-0.00195746
-0.00192347
-0.00192767
-0.00202532
-0.00215211
-0.00224671
-0.00228361
-0.00228672
-0.00230966
-0.00133388
-0.00136128
-0.00139407
-0.00141753
-0.00148902
-0.00159358
-0.00162572
-0.00158978
-0.00161585
-0.00175703
-0.00191002
-0.00197307
-0.00196171
-0.00196501
-0.00204203
-0.00215399
-0.00224613
-0.00229468
-0.00230944
-0.00233166
-0.00135051
-0.00137642
-0.00141161
-0.00143961
-0.00150371
-0.00160035
-0.00164539
-0.00162922
-0.00165166
-0.00176899
-0.00190982
-0.00198475
-0.00199317
-0.00200025
-0.00206167
-0.0021592
-0.00224681
-0.0023022
-0.00232721
-0.00235088
-0.00136704
-0.0013917
-0.00142852
-0.00146079
-0.00151984
-0.00160891
-0.00166274
-0.00166389
-0.00168654
-0.0017848
-0.00191241
-0.00199404
-0.00201871
-0.00203228
-0.002083
-0.00216726
-0.00224913
-0.00230774
-0.00234078
-0.00236716
-0.00138339
-0.00140704
-0.00144489
-0.00148101
-0.00153685
-0.00161913
-0.00167852
-0.00169427
-0.00171964
-0.00180332
-0.00191783
-0.00200216
-0.00203945
-0.00206056
-0.00210483
-0.00217762
-0.00225314
-0.00231245
-0.00235114
-0.00238064
-0.00139947
-0.00142235
-0.00146081
-0.00150022
-0.00155427
-0.00163074
-0.00169333
-0.00172092
-0.00175044
-0.00182348
-0.00192585
-0.00200995
-0.00205649
-0.002085
-0.00212613
-0.00218964
-0.00225873
-0.00231704
-0.00235925
-0.00239168
-0.0014152
-0.00143752
-0.0014763
-0.00151845
-0.00157169
-0.00164344
-0.00170755
-0.00174444
-0.00177868
-0.00184436
-0.00193605
-0.00201799
-0.00207083
-0.0021059
-0.00214617
-0.00220264
-0.00226565
-0.00232194
-0.00236596
-0.00240074
-0.0014305
-0.00145244
-0.00149135
-0.00153571
-0.00158883
-0.00165687
-0.00172141
-0.00176535
-0.00180431
-0.0018652
-0.00194791
-0.00202655
-0.00208331
-0.00212375
-0.00216451
-0.00221601
-0.00227362
-0.00232733
-0.00237189
-0.00240834
-0.00144527
-0.00146698
-0.00150594
-0.00155201
-0.00160543
-0.00167069
-0.00173502
-0.00178414
-0.00182741
-0.00188541
-0.00196089
-0.00203572
-0.00209455
-0.0021391
-0.002181
-0.00222921
-0.00228231
-0.00233327
-0.0023775
-0.00241491
-0.00145942
-0.00148102
-0.00151998
-0.00156738
-0.00162132
-0.0016846
-0.00174836
-0.00180116
-0.00184817
-0.0019046
-0.00197444
-0.00204544
-0.002105
-0.00215247
-0.0021957
-0.00224188
-0.0022914
-0.0023397
-0.00238306
-0.00242083
-0.00147284
-0.00149443
-0.00153338
-0.00158179
-0.00163636
-0.00169828
-0.00176138
-0.00181672
-0.00186679
-0.00192253
-0.00198811
-0.00205555
-0.00211493
-0.00216433
-0.00220877
-0.00225377
-0.00230058
-0.00234649
-0.0023887
-0.00242638
-0.00148542
-0.00150707
-0.00154605
-0.00159521
-0.00165042
-0.00171149
-0.00177394
-0.00183098
-0.00188348
-0.00193908
-0.00200154
-0.00206586
-0.0021245
-0.00217505
-0.00222046
-0.00226481
-0.00230963
-0.0023535
-0.00239446
-0.00243173
-0.00149703
-0.00151879
-0.00155785
-0.00160761
-0.00166342
-0.001724
-0.00178591
-0.00184405
-0.00189842
-0.00195417
-0.00201442
-0.00207614
-0.00213379
-0.0021849
-0.00223103
-0.00227505
-0.00231842
-0.0023606
-0.00240035
-0.00243702
-0.00150753
-0.00152946
-0.00156866
-0.0016189
-0.00167528
-0.00173562
-0.00179712
-0.00185597
-0.00191171
-0.00196774
-0.0020265
-0.00208618
-0.00214278
-0.00219406
-0.00224066
-0.00228453
-0.00232692
-0.00236776
-0.0024064
-0.0024424
-0.00151678
-0.0015389
-0.00157829
-0.00162898
-0.00168587
-0.00174617
-0.00180743
-0.00186674
-0.00192348
-0.00197982
-0.00203758
-0.00209573
-0.00215137
-0.00220257
-0.00224944
-0.00229325
-0.00233503
-0.00237493
-0.00241267
-0.00244807
-0.00152461
-0.00154698
-0.00158659
-0.00163766
-0.00169502
-0.00175542
-0.00181656
-0.00187621
-0.00193369
-0.00199036
-0.00204753
-0.00210457
-0.00215941
-0.00221041
-0.00225738
-0.00230115
-0.0023426
-0.00238199
-0.00241926
-0.00245434
-0.00153095
-0.00155351
-0.00159334
-0.00164468
-0.00170235
-0.00176283
-0.00182387
-0.00188372
-0.00194171
-0.00199867
-0.00205548
-0.00211176
-0.00216603
-0.0022169
-0.00226398
-0.00230772
-0.00234873
-0.00238742
-0.00242398
-0.00245845
-0.00153588
-0.00155952
-0.0016003
-0.00165241
-0.00171076
-0.00177173
-0.00183308
-0.00189331
-0.00195191
-0.00200937
-0.00206629
-0.00212232
-0.00217628
-0.00222707
-0.00227429
-0.00231825
-0.00235939
-0.00239808
-0.00243457
-0.00246905
0.00737148
0.003646
-0.00278856
-0.00809921
-0.00959387
-0.00868237
-0.00773145
-0.00713232
-0.00660571
-0.00623808
-0.00609167
-0.00599977
-0.00586128
-0.0057577
-0.00570388
-0.00559998
-0.0054716
-0.00534623
-0.00514733
-0.0049196
-0.00472923
-0.00449999
-0.00422855
-0.00401035
-0.00382794
-0.0036104
-0.00337794
-0.00317227
-0.00298102
-0.00278406
-0.00258577
-0.00239286
-0.00220293
-0.00201303
-0.00182259
-0.00163149
-0.00143828
-0.00124243
-0.00104235
-0.000838623
-0.000628931
-0.000415325
-0.00019393
3.10971e-05
0.000265727
0.000503733
0.000752318
0.00100565
0.00126781
0.00153975
0.00181501
0.00210778
0.00239973
0.00271066
0.00303037
0.00335719
0.00371485
0.00407856
0.00450079
0.00497733
0.0069099
0.00355323
-0.00274834
-0.00801706
-0.00953829
-0.00865596
-0.00771639
-0.00712247
-0.0065984
-0.00623223
-0.006087
-0.00599601
-0.00585812
-0.00575503
-0.00570178
-0.00559832
-0.00547028
-0.00534528
-0.00514663
-0.00491906
-0.00472887
-0.00449979
-0.00422839
-0.00401022
-0.00382788
-0.00361037
-0.00337792
-0.00317226
-0.00298102
-0.00278407
-0.00258577
-0.00239286
-0.00220294
-0.00201303
-0.00182259
-0.00163149
-0.00143828
-0.00124243
-0.00104235
-0.000838623
-0.000628931
-0.000415325
-0.00019393
3.10971e-05
0.000265727
0.000503733
0.000752318
0.00100565
0.0012678
0.00153975
0.00181501
0.00210778
0.00239973
0.00271066
0.00303037
0.00335719
0.00371485
0.00407857
0.0045008
0.00497741
0.00649583
0.00348144
-0.00264846
-0.00785655
-0.00944024
-0.00862006
-0.00770083
-0.00711143
-0.00658968
-0.00622536
-0.00608151
-0.00599155
-0.0058544
-0.00575193
-0.00569925
-0.00559623
-0.00546858
-0.00534401
-0.00514567
-0.00491829
-0.00472835
-0.00449946
-0.00422814
-0.00401004
-0.00382777
-0.0036103
-0.00337787
-0.00317224
-0.00298101
-0.00278406
-0.00258577
-0.00239286
-0.00220294
-0.00201303
-0.00182259
-0.00163149
-0.00143828
-0.00124243
-0.00104235
-0.000838623
-0.000628931
-0.000415325
-0.00019393
3.10969e-05
0.000265727
0.000503733
0.000752318
0.00100565
0.0012678
0.00153975
0.00181501
0.00210778
0.00239973
0.00271066
0.00303037
0.00335719
0.00371485
0.00407856
0.00450079
0.00497751
0.0061163
0.00340785
-0.00253145
-0.00766399
-0.00931045
-0.00856979
-0.00767711
-0.00709337
-0.00657588
-0.00621541
-0.00607368
-0.00598489
-0.00584873
-0.00574707
-0.00569498
-0.00559243
-0.00546533
-0.00534142
-0.00514363
-0.00491666
-0.00472712
-0.00449861
-0.00422757
-0.00400965
-0.00382749
-0.00361009
-0.00337774
-0.00317217
-0.00298097
-0.00278404
-0.00258576
-0.00239285
-0.00220294
-0.00201303
-0.00182259
-0.00163149
-0.00143828
-0.00124243
-0.00104235
-0.000838623
-0.000628931
-0.000415326
-0.000193929
3.10968e-05
0.000265727
0.000503733
0.000752318
0.00100565
0.0012678
0.00153975
0.00181501
0.00210778
0.00239973
0.00271066
0.00303037
0.00335719
0.00371485
0.00407855
0.00450076
0.00497763
0.00574439
0.00331658
-0.00241455
-0.00746241
-0.0091693
-0.00851282
-0.00764884
-0.00706994
-0.00655731
-0.00620219
-0.00606323
-0.00597566
-0.00584066
-0.00573995
-0.00568844
-0.00558642
-0.00545998
-0.00533691
-0.00513999
-0.0049137
-0.00472474
-0.00449689
-0.00422644
-0.00400887
-0.00382686
-0.00360961
-0.00337743
-0.003172
-0.00298086
-0.00278396
-0.00258571
-0.00239284
-0.00220293
-0.00201303
-0.00182259
-0.00163149
-0.00143828
-0.00124243
-0.00104235
-0.000838623
-0.000628931
-0.000415326
-0.000193929
3.10966e-05
0.000265728
0.000503733
0.000752318
0.00100565
0.0012678
0.00153975
0.00181501
0.00210778
0.00239973
0.00271066
0.00303037
0.00335718
0.00371484
0.00407852
0.0045007
0.00497776
0.00537499
0.00321054
-0.00229626
-0.00725656
-0.00902322
-0.00845337
-0.00761958
-0.00704428
-0.00653589
-0.00618674
-0.006051
-0.00596462
-0.00583067
-0.00573081
-0.00567977
-0.00557827
-0.00545252
-0.0053304
-0.00513464
-0.00490928
-0.00472105
-0.00449411
-0.00422463
-0.00400759
-0.00382578
-0.00360876
-0.00337689
-0.00317167
-0.00298063
-0.0027838
-0.00258562
-0.0023928
-0.00220291
-0.00201302
-0.00182259
-0.00163149
-0.00143828
-0.00124243
-0.00104235
-0.000838624
-0.000628931
-0.000415326
-0.000193929
3.10964e-05
0.000265728
0.000503733
0.000752318
0.00100565
0.0012678
0.00153975
0.00181501
0.00210778
0.00239973
0.00271066
0.00303036
0.00335717
0.00371483
0.00407849
0.00450061
0.00497791
0.00501299
0.00309616
-0.00217635
-0.0070493
-0.00887412
-0.00839205
-0.00759015
-0.00701769
-0.0065127
-0.00616975
-0.00603769
-0.0059526
-0.00581958
-0.00572034
-0.00566962
-0.00556861
-0.00544353
-0.00532236
-0.0051279
-0.00490362
-0.00471618
-0.00449036
-0.00422213
-0.0040058
-0.00382423
-0.00360753
-0.00337608
-0.00317115
-0.00298026
-0.00278354
-0.00258547
-0.00239272
-0.00220287
-0.002013
-0.00182258
-0.00163149
-0.00143828
-0.00124243
-0.00104235
-0.000838624
-0.000628931
-0.000415326
-0.000193929
3.10962e-05
0.000265728
0.000503732
0.000752318
0.00100565
0.0012678
0.00153975
0.00181501
0.00210778
0.00239972
0.00271065
0.00303036
0.00335716