/*--------------------------------*- C++ -*----------------------------------*\
| =========                 |                                                 |
| \\      /  F ield         | OpenFOAM: The Open Source CFD Toolbox           |
|  \\    /   O peration     | Version:  v2012                                 |
|   \\  /    A nd           | Website:  www.openfoam.com                      |
|    \\/     M anipulation  |                                                 |
\*---------------------------------------------------------------------------*/
FoamFile
{
    version     2.0;
    format      ascii;
    class       surfaceScalarField;
    location    "0.2";
    object      phi;
}
// * * * * * * * * * * * * * * * * * * * * * * * * * * * * * * * * * * * * * //

dimensions      [0 3 -1 0 0 0 0];
oriented        oriented;


internalField   nonuniform List<scalar> 
15820
(
1.57384e-06
3.41324e-07
1.5582e-06
-3.33368e-07
1.5698e-06
-4.91272e-08
1.55684e-06
-1.65072e-07
1.56079e-06
5.09624e-07
1.54432e-06
3.2481e-07
1.54072e-06
3.249e-07
1.52212e-06
-2.75364e-07
1.54857e-06
-1.5098e-07
1.52801e-06
-5.53024e-07
1.52739e-06
-5.09539e-07
1.54624e-06
-2.76272e-07
1.55638e-06
-5.62137e-08
1.5501e-06
-2.3381e-08
1.5546e-06
2.43438e-07
1.53668e-06
5.06945e-08
1.5388e-06
2.72861e-07
1.52876e-06
9.45592e-08
1.52339e-06
1.58225e-07
8.49882e-08
1.50771e-06
1.61698e-06
3.38783e-07
1.60449e-06
-3.20879e-07
1.61305e-06
-5.76868e-08
1.60439e-06
-1.56411e-07
1.60072e-06
5.13294e-07
1.5947e-06
3.30824e-07
1.58458e-06
3.35019e-07
1.57404e-06
-2.64817e-07
1.59212e-06
-1.69067e-07
1.58034e-06
-5.41237e-07
1.57344e-06
-5.02638e-07
1.59466e-06
-2.97493e-07
1.59772e-06
-5.92763e-08
1.60021e-06
-2.58679e-08
1.59517e-06
2.48473e-07
1.58849e-06
5.73728e-08
1.5779e-06
2.83456e-07
1.58143e-06
9.10244e-08
1.56277e-06
1.76885e-07
8.0375e-08
1.56739e-06
1.66202e-06
3.40795e-07
1.65431e-06
-3.1316e-07
1.65751e-06
-6.08873e-08
1.653e-06
-1.51908e-07
1.64359e-06
5.22705e-07
1.6457e-06
3.28719e-07
1.63619e-06
3.44524e-07
1.63252e-06
-2.61149e-07
1.64348e-06
-1.80017e-07
1.64119e-06
-5.38949e-07
1.62666e-06
-4.88112e-07
1.64296e-06
-3.13792e-07
1.64454e-06
-6.08548e-08
1.64783e-06
-2.91604e-08
1.64423e-06
2.52074e-07
1.63916e-06
6.2443e-08
1.63271e-06
2.89903e-07
1.63265e-06
9.10911e-08
1.62418e-06
1.85352e-07
8.65109e-08
1.61804e-06
1.71086e-06
3.45089e-07
1.70773e-06
-3.10024e-07
1.70607e-06
-5.92306e-08
1.70321e-06
-1.49044e-07
1.69302e-06
5.32893e-07
1.69863e-06
3.23108e-07
1.69489e-06
3.4826e-07
1.6938e-06
-2.60052e-07
1.69999e-06
-1.86217e-07
1.70118e-06
-5.40136e-07
1.68525e-06
-4.72182e-07
1.69264e-06
-3.21178e-07
1.69583e-06
-6.40446e-08
1.69706e-06
-3.03971e-08
1.69685e-06
2.52291e-07
1.69211e-06
6.71833e-08
1.68981e-06
2.92198e-07
1.68764e-06
9.32581e-08
1.68383e-06
1.89168e-07
9.4673e-08
1.67567e-06
1.76405e-06
3.48894e-07
1.76325e-06
-3.09226e-07
1.75895e-06
-5.49346e-08
1.75549e-06
-1.45578e-07
1.74873e-06
5.39653e-07
1.75512e-06
3.16715e-07
1.75733e-06
3.46047e-07
1.75602e-06
-2.58738e-07
1.75861e-06
-1.88811e-07
1.75892e-06
-5.40442e-07
1.74458e-06
-4.57845e-07
1.74535e-06
-3.21949e-07
1.74842e-06
-6.71155e-08
1.74935e-06
-3.13258e-08
1.75095e-06
2.50694e-07
1.74751e-06
7.0619e-08
1.74822e-06
2.91494e-07
1.74508e-06
9.63994e-08
1.7438e-06
1.90443e-07
1.03365e-07
1.73511e-06
1.82058e-06
3.5048e-07
1.81995e-06
-3.08593e-07
1.81481e-06
-4.97975e-08
1.81033e-06
-1.41099e-07
1.80835e-06
5.41636e-07
1.81501e-06
3.10049e-07
1.82073e-06
3.40326e-07
1.81843e-06
-2.56429e-07
1.81795e-06
-1.88339e-07
1.81554e-06
-5.38025e-07
1.8029e-06
-4.45212e-07
1.80035e-06
-3.19399e-07
1.80223e-06
-6.89885e-08
1.80363e-06
-3.27256e-08
1.80696e-06
2.4736e-07
1.80455e-06
7.30342e-08
1.8082e-06
2.87843e-07
1.80401e-06
1.00584e-07
1.8047e-06
1.89755e-07
1.12431e-07
1.79563e-06
1.87905e-06
3.49578e-07
1.87754e-06
-3.0708e-07
1.87233e-06
-4.45937e-08
1.86756e-06
-1.3633e-07
1.86979e-06
5.39405e-07
1.87687e-06
3.02973e-07
1.88393e-06
3.33266e-07
1.88068e-06
-2.53176e-07
1.87791e-06
-1.85573e-07
1.87238e-06
-5.32491e-07
1.86083e-06
-4.33661e-07
1.85689e-06
-3.15464e-07
1.85781e-06
-6.9912e-08
1.85941e-06
-3.43237e-08
1.86469e-06
2.42083e-07
1.8627e-06
7.50195e-08
1.86884e-06
2.81701e-07
1.86367e-06
1.05759e-07
1.86569e-06
1.8773e-07
1.21574e-07
1.85655e-06
1.93862e-06
3.46802e-07
1.93613e-06
-3.04581e-07
1.93102e-06
-3.9486e-08
1.92666e-06
-1.31967e-07
1.93198e-06
5.34082e-07
1.93941e-06
2.95541e-07
1.94673e-06
3.25947e-07
1.94276e-06
-2.4921e-07
1.93865e-06
-1.81465e-07
1.93038e-06
-5.24221e-07
1.91939e-06
-4.22665e-07
1.91473e-06
-3.10809e-07
1.91523e-06
-7.04114e-08
1.91651e-06
-3.5598e-08
1.92357e-06
2.35023e-07
1.92155e-06
7.70405e-08
1.92947e-06
2.73784e-07
1.92349e-06
1.11732e-07
1.92636e-06
1.84862e-07
1.30497e-07
1.91744e-06
1.99922e-06
3.42905e-07
1.99599e-06
-3.01357e-07
1.99099e-06
-3.44804e-08
1.98722e-06
-1.28199e-07
1.99458e-06
5.26718e-07
2.00214e-06
2.87988e-07
2.00941e-06
3.18677e-07
2.00494e-06
-2.44742e-07
2.00034e-06
-1.76869e-07
1.99004e-06
-5.13919e-07
1.97931e-06
-4.11934e-07
1.97392e-06
-3.0542e-07
1.97432e-06
-7.08081e-08
1.97477e-06
-3.60513e-08
1.98319e-06
2.26604e-07
1.98083e-06
7.9398e-08
1.98991e-06
2.64702e-07
1.9834e-06
1.1825e-07
1.98682e-06
1.81443e-07
1.38904e-07
1.97841e-06
2.06111e-06
3.38414e-07
2.05742e-06
-2.97663e-07
2.05254e-06
-2.96024e-08
2.04917e-06
-1.24827e-07
2.05777e-06
5.1812e-07
2.06523e-06
2.80531e-07
2.07249e-06
3.11412e-07
2.06763e-06
-2.39885e-07
2.06315e-06
-1.72386e-07
2.0515e-06
-5.02271e-07
2.04094e-06
-4.01376e-07
2.03459e-06
-2.99064e-07
2.03502e-06
-7.1239e-08
2.03428e-06
-3.53151e-08
2.04357e-06
2.17317e-07
2.04072e-06
8.22429e-08
2.05055e-06
2.54881e-07
2.04379e-06
1.2501e-07
2.04757e-06
1.77656e-07
1.46509e-07
2.03997e-06
2.12462e-06
3.336e-07
2.1206e-06
-2.9364e-07
2.1159e-06
-2.49027e-08
2.11263e-06
-1.21554e-07
2.12193e-06
5.08813e-07
2.12917e-06
2.73294e-07
2.13657e-06
3.04013e-07
2.13134e-06
-2.3466e-07
2.1273e-06
-1.68337e-07
2.11478e-06
-4.89755e-07
2.10445e-06
-3.91043e-07
2.09694e-06
-2.91561e-07
2.09749e-06
-7.1785e-08
2.09541e-06
-3.32349e-08
2.10515e-06
2.0758e-07
2.1018e-06
8.55911e-08
2.11205e-06
2.44628e-07
2.10536e-06
1.31701e-07
2.10935e-06
1.73668e-07
1.53083e-07
2.10278e-06
2.18996e-06
3.28567e-07
2.18566e-06
-2.89333e-07
2.18119e-06
-2.04308e-08
2.17779e-06
-1.18154e-07
2.18753e-06
4.99071e-07
2.19449e-06
2.66334e-07
2.20214e-06
2.96358e-07
2.19651e-06
-2.29031e-07
2.19302e-06
-1.6484e-07
2.17987e-06
-4.76607e-07
2.16988e-06
-3.81056e-07
2.1612e-06
-2.82876e-07
2.16195e-06
-7.25353e-08
2.1586e-06
-2.98883e-08
2.1685e-06
1.97679e-07
2.16475e-06
8.93474e-08
2.17516e-06
2.34212e-07
2.16882e-06
1.38043e-07
2.17282e-06
1.69667e-07
1.58503e-07
2.1674e-06
2.25728e-06
3.23349e-07
2.25268e-06
-2.84739e-07
2.24848e-06
-1.62241e-08
2.24483e-06
-1.14502e-07
2.2549e-06
4.88992e-07
2.26156e-06
2.5968e-07
2.26955e-06
2.88367e-07
2.26347e-06
-2.22948e-07
2.26053e-06
-1.61899e-07
2.24681e-06
-4.62886e-07
2.23729e-06
-3.71545e-07
2.22752e-06
-2.73101e-07
2.22855e-06
-7.35699e-08
2.22419e-06
-2.55235e-08
2.23407e-06
1.87794e-07
2.23009e-06
9.33334e-08
2.24039e-06
2.23904e-07
2.23461e-06
1.43825e-07
2.23844e-06
1.65837e-07
1.62754e-07
2.23419e-06
2.32665e-06
3.17949e-07
2.32175e-06
-2.79841e-07
2.31784e-06
-1.23108e-08
2.31388e-06
-1.10547e-07
2.32429e-06
4.78581e-07
2.33062e-06
2.53355e-07
2.33899e-06
2.79996e-07
2.33241e-06
-2.16368e-07
2.33e-06
-1.5949e-07
2.31568e-06
-4.48566e-07
2.30673e-06
-3.626e-07
2.29603e-06
-2.62394e-07
2.29737e-06
-7.4917e-08
2.29232e-06
-2.04651e-08
2.30204e-06
1.78067e-07
2.29806e-06
9.73186e-08
2.30799e-06
2.13977e-07
2.30292e-06
1.48887e-07
2.30644e-06
1.62324e-07
1.65897e-07
2.30329e-06
2.39815e-06
3.12362e-07
2.39293e-06
-2.74619e-07
2.38933e-06
-8.7161e-09
2.38505e-06
-1.06266e-07
2.39582e-06
4.67811e-07
2.40179e-06
2.47387e-07
2.41056e-06
2.71221e-07
2.40346e-06
-2.0926e-07
2.40155e-06
-1.57585e-07
2.3866e-06
-4.33616e-07
2.37826e-06
-3.54254e-07
2.3668e-06
-2.50943e-07
2.36842e-06
-7.65281e-08
2.363e-06
-1.5045e-08
2.37241e-06
1.68649e-07
2.36868e-06
1.01053e-07
2.37797e-06
2.04682e-07
2.37375e-06
1.53115e-07
2.37686e-06
1.59207e-07
1.68035e-07
2.37472e-06
2.47185e-06
3.06582e-07
2.46628e-06
-2.69057e-07
2.46303e-06
-5.46524e-09
2.45841e-06
-1.01643e-07
2.46957e-06
4.56652e-07
2.47515e-06
2.4181e-07
2.48434e-06
2.62028e-07
2.47669e-06
-2.01609e-07
2.47527e-06
-1.56162e-07
2.45969e-06
-4.18035e-07
2.45191e-06
-3.4648e-07
2.43991e-06
-2.38942e-07
2.44166e-06
-7.82807e-08
2.43619e-06
-9.57333e-09
2.44512e-06
1.59723e-07
2.44186e-06
1.04309e-07
2.45034e-06
1.96202e-07
2.447e-06
1.56462e-07
2.4497e-06
1.565e-07
1.6928e-07
2.44846e-06
2.54781e-06
3.00603e-07
2.54189e-06
-2.6314e-07
2.53901e-06
-2.58452e-09
2.53403e-06
-9.66621e-08
2.5456e-06
4.45082e-07
2.55076e-06
2.36651e-07
2.56038e-06
2.52408e-07
2.55218e-06
-1.93412e-07
2.55121e-06
-1.55194e-07
2.53504e-06
-4.01865e-07
2.52776e-06
-3.39197e-07
2.51541e-06
-2.26591e-07
2.51712e-06
-7.99914e-08
2.51189e-06
-4.34238e-09
2.52011e-06
1.51504e-07
2.51752e-06
1.06894e-07
2.5251e-06
1.8863e-07
2.52261e-06
1.58952e-07
2.52495e-06
1.54159e-07
1.69739e-07
2.52449e-06
2.6261e-06
2.9442e-07
2.61982e-06
-2.56855e-07
2.61734e-06
-1.00432e-10
2.61198e-06
-9.13033e-08
2.62397e-06
4.33085e-07
2.62869e-06
2.31936e-07
2.63873e-06
2.42362e-07
2.63e-06
-1.84683e-07
2.62945e-06
-1.54638e-07
2.61277e-06
-3.8519e-07
2.60586e-06
-3.32282e-07
2.59337e-06
-2.14107e-07
2.59482e-06
-8.14414e-08
2.59009e-06
3.8884e-10
2.5974e-06
1.44191e-07
2.59561e-06
1.08687e-07
2.60228e-06
1.81957e-07
2.60056e-06
1.6068e-07
2.60261e-06
1.52105e-07
1.6951e-07
2.60284e-06
2.7068e-06
2.88028e-07
2.70014e-06
-2.5019e-07
2.69808e-06
1.96123e-09
2.69232e-06
-8.55489e-08
2.70475e-06
4.20654e-07
2.70901e-06
2.27683e-07
2.71947e-06
2.31903e-07
2.71024e-06
-1.75452e-07
2.71003e-06
-1.54433e-07
2.69297e-06
-3.6813e-07
2.68627e-06
-3.25576e-07
2.67387e-06
-2.01714e-07
2.67483e-06
-8.24035e-08
2.67083e-06
4.39874e-09
2.67707e-06
1.37942e-07
2.67611e-06
1.09655e-07
2.68199e-06
1.76074e-07
2.68089e-06
1.61782e-07
2.68273e-06
1.50257e-07
1.68679e-07
2.68357e-06
2.78998e-06
2.81424e-07
2.78293e-06
-2.43135e-07
2.78131e-06
3.57623e-09
2.77514e-06
-7.93831e-08
2.78801e-06
4.07789e-07
2.79179e-06
2.23899e-07
2.80264e-06
2.21058e-07
2.79296e-06
-1.65775e-07
2.79302e-06
-1.54493e-07
2.77573e-06
-3.50835e-07
2.76905e-06
-3.18897e-07
2.75698e-06
-1.89649e-07
2.75723e-06
-8.26556e-08
2.7541e-06
7.5286e-09
2.75923e-06
1.32819e-07
2.75901e-06
1.09871e-07
2.76428e-06
1.70809e-07
2.76367e-06
1.62391e-07
2.76537e-06
1.48556e-07
1.67322e-07
2.76673e-06
2.87571e-06
2.74603e-07
2.86825e-06
-2.35682e-07
2.86711e-06
4.72276e-09
2.86052e-06
-7.27949e-08
2.87381e-06
3.94496e-07
2.87713e-06
2.2058e-07
2.88832e-06
2.09873e-07
2.87827e-06
-1.55724e-07
2.87848e-06
-1.54709e-07
2.86113e-06
-3.33485e-07
2.85428e-06
-3.1204e-07
2.84277e-06
-1.78142e-07
2.84212e-06
-8.20102e-08
2.83995e-06
9.70337e-09
2.844e-06
1.28763e-07
2.84436e-06
1.09515e-07
2.84922e-06
1.6595e-07
2.84899e-06
1.62619e-07
2.85059e-06
1.4696e-07
1.65511e-07
2.8524e-06
2.96407e-06
2.67564e-07
2.95621e-06
-2.27824e-07
2.95555e-06
5.3819e-09
2.94853e-06
-6.57792e-08
2.96224e-06
3.80792e-07
2.96511e-06
2.17711e-07
2.97657e-06
1.98412e-07
2.96624e-06
-1.45401e-07
2.96648e-06
-1.54947e-07
2.94927e-06
-3.16276e-07
2.94203e-06
-3.048e-07
2.93129e-06
-1.67405e-07
2.92961e-06
-8.03309e-08
2.92838e-06
1.09396e-08
2.93154e-06
1.256e-07
2.93223e-06
1.08828e-07
2.93687e-06
1.61308e-07
2.93695e-06
1.62538e-07
2.93846e-06
1.45449e-07
1.6331e-07
2.94066e-06
3.05513e-06
2.60305e-07
3.04686e-06
-2.19555e-07
3.04671e-06
5.53874e-09
3.03927e-06
-5.83389e-08
3.05335e-06
3.66704e-07
3.0558e-06
2.1526e-07
3.06746e-06
1.86759e-07
3.05698e-06
-1.34924e-07
3.05709e-06
-1.55057e-07
3.04023e-06
-2.99415e-07
3.03241e-06
-2.96976e-07
3.02261e-06
-1.57607e-07
3.01984e-06
-7.7563e-08
3.0194e-06
1.13754e-08
3.02194e-06
1.23063e-07
3.02271e-06
1.08059e-07
3.02728e-06
1.56735e-07
3.02763e-06
1.62196e-07
3.02907e-06
1.44008e-07
1.60776e-07
3.0316e-06
3.14899e-06
2.52825e-07
3.14031e-06
-2.10874e-07
3.14067e-06
5.18305e-09
3.13281e-06
-5.04857e-08
3.14724e-06
3.52272e-07
3.14932e-06
2.13183e-07
3.16106e-06
1.75019e-07
3.15057e-06
-1.24436e-07
3.15039e-06
-1.54875e-07
3.13409e-06
-2.8311e-07
3.12551e-06
-2.88404e-07
3.11675e-06
-1.48841e-07
3.11295e-06
-7.37589e-08
3.11308e-06
1.12405e-08
3.11527e-06
1.20874e-07
3.11595e-06
1.07379e-07
3.12052e-06
1.52167e-07
3.12112e-06
1.61598e-07
3.12249e-06
1.42633e-07
1.57966e-07
3.1253e-06
3.24573e-06
2.45125e-07
3.23663e-06
-2.01781e-07
3.23751e-06
4.31019e-09
3.22926e-06
-4.2242e-08
3.24399e-06
3.37548e-07
3.24575e-06
2.11417e-07
3.25746e-06
1.63316e-07
3.24712e-06
-1.14097e-07
3.24647e-06
-1.5423e-07
3.23091e-06
-2.67553e-07
3.22147e-06
-2.78963e-07
3.21373e-06
-1.41101e-07
3.20908e-06
-6.91075e-08
3.20949e-06
1.08316e-08
3.21158e-06
1.18784e-07
3.21206e-06
1.06898e-07
3.21664e-06
1.47588e-07
3.21751e-06
1.60732e-07
3.21882e-06
1.41322e-07
1.54929e-07
3.22185e-06
3.34542e-06
2.37207e-07
3.33592e-06
-1.92278e-07
3.33731e-06
2.92222e-09
3.32871e-06
-3.3642e-08
3.34366e-06
3.22599e-07
3.34519e-06
2.09884e-07
3.35672e-06
1.51792e-07
3.3467e-06
-1.04078e-07
3.34543e-06
-1.52957e-07
3.33077e-06
-2.52902e-07
3.32041e-06
-2.68598e-07
3.31357e-06
-1.34265e-07
3.30836e-06
-6.38959e-08
3.30875e-06
1.04443e-08
3.31092e-06
1.16611e-07
3.31116e-06
1.06656e-07
3.31574e-06
1.4301e-07
3.31688e-06
1.59594e-07
3.31814e-06
1.40067e-07
1.51719e-07
3.32135e-06
3.44818e-06
2.29074e-07
3.43827e-06
-1.82374e-07
3.44016e-06
1.02883e-09
3.43126e-06
-2.47334e-08
3.44635e-06
3.07505e-07
3.44774e-06
2.0849e-07
3.45893e-06
1.40607e-07
3.44941e-06
-9.45621e-08
3.44736e-06
-1.50907e-07
3.43372e-06
-2.39263e-07
3.42248e-06
-2.57359e-07
3.41632e-06
-1.28104e-07
3.41086e-06
-5.84361e-08
3.41101e-06
1.02979e-08
3.41335e-06
1.14274e-07
3.41337e-06
1.06629e-07
3.4179e-06
1.38484e-07
3.41934e-06
1.5815e-07
3.42054e-06
1.38867e-07
1.48387e-07
3.42388e-06
3.55407e-06
2.20732e-07
3.54378e-06
-1.7208e-07
3.54616e-06
-1.35069e-09
3.537e-06
-1.55793e-08
3.55214e-06
2.92366e-07
3.55351e-06
2.07126e-07
3.56419e-06
1.29926e-07
3.55534e-06
-8.57184e-08
3.55241e-06
-1.4797e-07
3.53979e-06
-2.26643e-07
3.52786e-06
-2.45429e-07
3.52207e-06
-1.2232e-07
3.51664e-06
-5.30009e-08
3.51642e-06
1.05132e-08
3.51892e-06
1.11777e-07
3.51879e-06
1.06762e-07
3.52322e-06
1.34053e-07
3.52499e-06
1.56377e-07
3.52614e-06
1.37715e-07
1.44986e-07
3.52954e-06
3.66321e-06
2.12187e-07
3.65254e-06
-1.61411e-07
3.65537e-06
-4.1874e-09
3.64605e-06
-6.25862e-09
3.66113e-06
2.77294e-07
3.66258e-06
2.05671e-07
3.67258e-06
1.19924e-07
3.66457e-06
-7.77071e-08
3.66068e-06
-1.44077e-07
3.64899e-06
-2.14958e-07
3.63664e-06
-2.33075e-07
3.63095e-06
-1.16633e-07
3.62573e-06
-4.77739e-08
3.62512e-06
1.11171e-08
3.62772e-06
1.09177e-07
3.6275e-06
1.0698e-07
3.63179e-06
1.29765e-07
3.63391e-06
1.54264e-07
3.63503e-06
1.36591e-07
1.41564e-07
3.63845e-06
3.77568e-06
2.0345e-07
3.76466e-06
-1.50391e-07
3.76791e-06
-7.44117e-09
3.75852e-06
3.13336e-09
3.7734e-06
2.62418e-07
3.77507e-06
2.03996e-07
3.78423e-06
1.10765e-07
3.77718e-06
-7.06595e-08
3.77233e-06
-1.39224e-07
3.76141e-06
-2.0404e-07
3.74893e-06
-2.20591e-07
3.74312e-06
-1.1083e-07
3.73817e-06
-4.28205e-08
3.73724e-06
1.20457e-08
3.73987e-06
1.06552e-07
3.73962e-06
1.07226e-07
3.74374e-06
1.25647e-07
3.74619e-06
1.51815e-07
3.74731e-06
1.35473e-07
1.38159e-07
3.75071e-06
3.89159e-06
1.94533e-07
3.88025e-06
-1.39048e-07
3.88386e-06
-1.10592e-08
3.87451e-06
1.24833e-08
3.88905e-06
2.47879e-07
3.89108e-06
2.01973e-07
3.89924e-06
1.02598e-07
3.89323e-06
-6.46505e-08
3.88751e-06
-1.33499e-07
3.87713e-06
-1.93666e-07
3.86479e-06
-2.08243e-07
3.85875e-06
-1.04794e-07
3.85403e-06
-3.80998e-08
3.85289e-06
1.31861e-08
3.85549e-06
1.03952e-07
3.85522e-06
1.07492e-07
3.85917e-06
1.21706e-07
3.86193e-06
1.49048e-07
3.86307e-06
1.34336e-07
1.34794e-07
3.86643e-06
4.01104e-06
1.8545e-07
3.99941e-06
-1.27416e-07
4.00333e-06
-1.49759e-08
3.99415e-06
2.16606e-08
4.00819e-06
2.33833e-07
4.0107e-06
1.99469e-07
4.01776e-06
9.55378e-08
4.01278e-06
-5.96748e-08
4.00636e-06
-1.27079e-07
3.99628e-06
-1.83582e-07
3.98427e-06
-1.96239e-07
3.978e-06
-9.85159e-08
3.97339e-06
-3.34974e-08
3.97215e-06
1.44293e-08
3.97471e-06
1.01391e-07
3.97444e-06
1.07764e-07
3.97817e-06
1.17976e-07
3.98125e-06
1.45967e-07
3.98242e-06
1.33168e-07
1.31483e-07
3.98573e-06
4.13414e-06
1.76219e-07
4.12226e-06
-1.15541e-07
4.1264e-06
-1.91118e-08
4.11754e-06
3.05157e-08
4.13093e-06
2.20444e-07
4.13403e-06
1.96369e-07
4.13993e-06
8.96363e-08
4.13589e-06
-5.56365e-08
4.12901e-06
-1.20198e-07
4.11899e-06
-1.73553e-07
4.10744e-06
-1.84694e-07
4.101e-06
-9.20744e-08
4.09639e-06
-2.88881e-08
4.09509e-06
1.57252e-08
4.09766e-06
9.88251e-08
4.09738e-06
1.08041e-07
4.10086e-06
1.14499e-07
4.10424e-06
1.42582e-07
4.10545e-06
1.31959e-07
1.28231e-07
4.10871e-06
4.26099e-06
1.66861e-07
4.24892e-06
-1.03473e-07
4.25318e-06
-2.33725e-08
4.24482e-06
3.88832e-08
4.25738e-06
2.0788e-07
4.26117e-06
1.92576e-07
4.26592e-06
8.48889e-08
4.26265e-06
-5.23624e-08
4.25558e-06
-1.1313e-07
4.24542e-06
-1.63396e-07
4.23434e-06
-1.73615e-07
4.22789e-06
-8.56251e-08
4.22317e-06
-2.41629e-08
4.22182e-06
1.70738e-08
4.22444e-06
9.6207e-08
4.22419e-06
1.0829e-07
4.22736e-06
1.11328e-07
4.23103e-06
1.38911e-07
4.23229e-06
1.30701e-07
1.25042e-07
4.23548e-06
4.39171e-06
1.57401e-07
4.37951e-06
-9.12738e-08
4.38379e-06
-2.76503e-08
4.37609e-06
4.65839e-08
4.38766e-06
1.96309e-07
4.39222e-06
1.88019e-07
4.39588e-06
8.12326e-08
4.39314e-06
-4.96264e-08
4.38614e-06
-1.06133e-07
4.37576e-06
-1.53008e-07
4.36506e-06
-1.62924e-07
4.35877e-06
-7.93336e-08
4.35389e-06
-1.92833e-08
4.35242e-06
1.85425e-08
4.35514e-06
9.34887e-08
4.35497e-06
1.0846e-07
4.3578e-06
1.08498e-07
4.36173e-06
1.34988e-07
4.36304e-06
1.29389e-07
1.21934e-07
4.36615e-06
4.52642e-06
1.47867e-07
4.51416e-06
-7.90139e-08
4.51834e-06
-3.18257e-08
4.51149e-06
5.34341e-08
4.52191e-06
1.85885e-07
4.52726e-06
1.82671e-07
4.52994e-06
7.85474e-08
4.52749e-06
-4.71777e-08
4.52079e-06
-9.94284e-08
4.51016e-06
-1.4238e-07
4.49971e-06
-1.52469e-07
4.49373e-06
-7.33547e-08
4.48873e-06
-1.42858e-08
4.48705e-06
2.02263e-08
4.48986e-06
9.06714e-08
4.48986e-06
1.08462e-07
4.49233e-06
1.06034e-07
4.49646e-06
1.30856e-07
4.49784e-06
1.28004e-07
1.18945e-07
4.50083e-06
4.66523e-06
1.38293e-07
4.65299e-06
-6.67711e-08
4.65693e-06
-3.57702e-08
4.65111e-06
5.92586e-08
4.66027e-06
1.76728e-07
4.66637e-06
1.76564e-07
4.66827e-06
7.66535e-08
4.66585e-06
-4.47598e-08
4.65959e-06
-9.31689e-08
4.64881e-06
-1.31605e-07
4.63841e-06
-1.42064e-07
4.63282e-06
-6.77653e-08
4.62784e-06
-9.30879e-09
4.62584e-06
2.22313e-08
4.62871e-06
8.7802e-08
4.62897e-06
1.082e-07
4.63106e-06
1.03941e-07
4.63535e-06
1.26572e-07
4.63684e-06
1.26508e-07
1.16131e-07
4.63966e-06
4.80827e-06
1.28714e-07
4.79613e-06
-5.46313e-08
4.7997e-06
-3.93463e-08
4.79507e-06
6.3895e-08
4.80289e-06
1.6891e-07
4.80966e-06
1.69794e-07
4.81098e-06
7.53269e-08
4.80837e-06
-4.21462e-08
4.80261e-06
-8.74102e-08
4.79186e-06
-1.20858e-07
4.78133e-06
-1.31533e-07
4.77612e-06
-6.25523e-08
4.77135e-06
-4.53789e-09
4.76897e-06
2.46107e-08
4.77179e-06
8.49849e-08
4.77239e-06
1.07594e-07
4.77415e-06
1.02179e-07
4.77851e-06
1.22218e-07
4.78018e-06
1.24837e-07
1.13547e-07
4.78276e-06
4.95566e-06
1.19171e-07
4.94372e-06
-4.26882e-08
4.94678e-06
-4.24099e-08
4.94346e-06
6.72115e-08
4.94994e-06
1.62432e-07
4.95721e-06
1.62529e-07
4.95822e-06
7.43174e-08
4.95523e-06
-3.91578e-08
4.94995e-06
-8.21274e-08
4.93944e-06
-1.10348e-07
4.92867e-06
-1.20767e-07
4.92374e-06
-5.76238e-08
4.91935e-06
-1.42846e-10
4.91663e-06
2.73244e-08
4.91925e-06
8.23651e-08
4.92023e-06
1.06612e-07
4.92174e-06
1.0067e-07
4.92607e-06
1.17889e-07
4.92798e-06
1.22927e-07
1.1122e-07
4.93031e-06
5.10754e-06
1.0971e-07
5.09589e-06
-3.10417e-08
5.09829e-06
-4.48143e-08
5.09639e-06
6.91144e-08
5.1016e-06
1.57218e-07
5.10914e-06
1.54995e-07
5.11009e-06
7.33701e-08
5.10661e-06
-3.56784e-08
5.10171e-06
-7.7227e-08
5.09163e-06
-1.00271e-07
5.08063e-06
-1.09766e-07
5.07581e-06
-5.28051e-08
5.0719e-06
3.77023e-09
5.06899e-06
3.02285e-08
5.07128e-06
8.00776e-08
5.0726e-06
1.05296e-07
5.07395e-06
9.93165e-08
5.07819e-06
1.13653e-07
5.08037e-06
1.20742e-07
1.09137e-07
5.08245e-06
5.26403e-06
1.00377e-07
5.25279e-06
-1.97969e-08
5.25439e-06
-4.64197e-08
5.25395e-06
6.95602e-08
5.25804e-06
1.53119e-07
5.26559e-06
1.47452e-07
5.26669e-06
7.22664e-08
5.26269e-06
-3.16775e-08
5.25802e-06
-7.25561e-08
5.24855e-06
-9.07975e-08
5.23738e-06
-9.85975e-08
5.23249e-06
-4.79195e-08
5.2291e-06
7.16066e-09
5.22617e-06
3.31606e-08
5.22807e-06
7.81778e-08
5.22961e-06
1.03757e-07
5.23089e-06
9.8033e-08
5.23501e-06
1.09539e-07
5.23746e-06
1.18288e-07
1.07248e-07
5.23935e-06
5.42529e-06
9.12239e-08
5.41455e-06
-9.0612e-09
5.41525e-06
-4.71175e-08
5.41624e-06
6.85741e-08
5.41944e-06
1.49921e-07
5.4267e-06
1.40186e-07
5.42815e-06
7.08165e-08
5.42367e-06
-2.71998e-08
5.41903e-06
-6.79083e-08
5.41028e-06
-8.20568e-08
5.3991e-06
-8.74174e-08
5.39397e-06
-4.27823e-08
5.39106e-06
1.00675e-08
5.38828e-06
3.5946e-08
5.38981e-06
7.66407e-08
5.39144e-06
1.0213e-07
5.39269e-06
9.67802e-08
5.39668e-06
1.05555e-07
5.39938e-06
1.15583e-07
1.05487e-07
5.40114e-06
5.59145e-06
8.2305e-08
5.58133e-06
1.05671e-09
5.58104e-06
-4.68256e-08
5.58338e-06
6.62317e-08
5.58594e-06
1.47369e-07
5.59265e-06
1.33473e-07
5.59456e-06
6.89081e-08
5.58974e-06
-2.23834e-08
5.58489e-06
-6.30624e-08
5.57693e-06
-7.40971e-08
5.56596e-06
-7.64409e-08
5.56043e-06
-3.72579e-08
5.55791e-06
1.2591e-08
5.5554e-06
3.84582e-08
5.55667e-06
7.53646e-08
5.55828e-06
1.00521e-07
5.55947e-06
9.55908e-08
5.56334e-06
1.01688e-07
5.56628e-06
1.12644e-07
1.03789e-07
5.56798e-06
5.76267e-06
7.36755e-08
5.75328e-06
1.04496e-08
5.75194e-06
-4.54904e-08
5.75552e-06
6.26572e-08
5.7577e-06
1.45188e-07
5.76362e-06
1.27552e-07
5.76602e-06
6.6511e-08
5.76105e-06
-1.74159e-08
5.75583e-06
-5.78412e-08
5.7486e-06
-6.68651e-08
5.73807e-06
-6.59201e-08
5.7321e-06
-3.12849e-08
5.72982e-06
1.48769e-08
5.72763e-06
4.06409e-08
5.72878e-06
7.4221e-08
5.73035e-06
9.89502e-08
5.73139e-06
9.45501e-08
5.73513e-06
9.79496e-08
5.73829e-06
1.09477e-07
1.02095e-07
5.73999e-06
5.9391e-06
6.53922e-08
5.93054e-06
1.90122e-08
5.92813e-06
-4.30813e-08
5.93278e-06
5.80092e-08
5.93487e-06
1.43094e-07
5.93981e-06
1.22616e-07
5.94264e-06
6.36751e-08
5.93775e-06
-1.25212e-08
5.93205e-06
-5.21361e-08
5.9254e-06
-6.02219e-08
5.91555e-06
-5.60667e-08
5.9092e-06
-2.49333e-08
5.90696e-06
1.71152e-08
5.90511e-06
4.24914e-08
5.90623e-06
7.31032e-08
5.90782e-06
9.73524e-08
5.90864e-06
9.37307e-08
5.91217e-06
9.44214e-08
5.91557e-06
1.06074e-07
1.00348e-07
5.91732e-06
6.12091e-06
5.75106e-08
6.11327e-06
2.66482e-08
6.1098e-06
-3.96037e-08
6.11531e-06
5.24932e-08
6.1176e-06
1.40809e-07
6.12143e-06
1.18782e-07
6.12456e-06
6.05428e-08
6.12e-06
-7.95288e-09
6.11376e-06
-4.59015e-08
6.1075e-06
-5.39619e-08
6.09849e-06
-4.70604e-08
6.0919e-06
-1.83409e-08
6.08954e-06
1.94759e-08
6.08797e-06
4.40603e-08
6.08913e-06
7.19458e-08
6.09086e-06
9.56206e-08
6.09146e-06
9.31363e-08
6.09463e-06
9.12438e-08
6.09825e-06
1.02454e-07
9.8476e-08
6.10013e-06
6.30826e-06
5.00856e-08
6.30164e-06
3.32664e-08
6.29712e-06
-3.50844e-08
6.30328e-06
4.63384e-08
6.30601e-06
1.38077e-07
6.3087e-06
1.16087e-07
6.31192e-06
5.73258e-08
6.30791e-06
-3.94053e-09
6.3012e-06
-3.91929e-08
6.29508e-06
-4.7842e-08
6.287e-06
-3.89831e-08
6.2804e-06
-1.17337e-08
6.27779e-06
2.20864e-08
6.27642e-06
4.54264e-08
6.27761e-06
7.07568e-08
6.27957e-06
9.36557e-08
6.28004e-06
9.26698e-08
6.28272e-06
8.85664e-08
6.28648e-06
9.86893e-08
9.64025e-08
6.28856e-06
6.50133e-06
4.31691e-08
6.4958e-06
3.8792e-08
6.49031e-06
-2.95888e-08
6.49684e-06
3.98047e-08
6.50024e-06
1.34675e-07
6.50185e-06
1.14483e-07
6.50488e-06
5.42888e-08
6.50162e-06
-6.72552e-10
6.49458e-06
-3.21591e-08
6.48835e-06
-4.16151e-08
6.48119e-06
-3.18165e-08
6.47482e-06
-5.36263e-09
6.47191e-06
2.49893e-08
6.47065e-06
4.66898e-08
6.47182e-06
6.95888e-08
6.47406e-06
9.14122e-08
6.47458e-06
9.21553e-08
6.47667e-06
8.64717e-08
6.48043e-06
9.49299e-08
9.40759e-08
6.48276e-06
6.7003e-06
3.68084e-08
6.69592e-06
4.3164e-08
6.68954e-06
-2.32049e-08
6.69619e-06
3.31597e-08
6.70042e-06
1.30438e-07
6.70107e-06
1.13838e-07
6.70366e-06
5.16994e-08
6.70122e-06
1.76635e-09
6.69411e-06
-2.50445e-08
6.68756e-06
-3.50655e-08
6.68118e-06
-2.54423e-08
6.6753e-06
5.19158e-10
6.67214e-06
2.81461e-08
6.67087e-06
4.7962e-08
6.67196e-06
6.85041e-08
6.67444e-06
8.89243e-08
6.6752e-06
9.13979e-08
6.67676e-06
8.49119e-08
6.68033e-06
9.13634e-08
9.1517e-08
6.68289e-06
6.90535e-06
3.10457e-08
6.90218e-06
4.63398e-08
6.89502e-06
-1.60498e-08
6.9015e-06
2.66806e-08
6.90669e-06
1.25247e-07
6.90658e-06
1.1395e-07
6.90846e-06
4.98137e-08
6.90686e-06
3.37434e-09
6.89994e-06
-1.81233e-08
6.89295e-06
-2.80778e-08
6.88716e-06
-1.96505e-08
6.88195e-06
5.72315e-09
6.87866e-06
3.14356e-08
6.87729e-06
4.93357e-08
6.87825e-06
6.75425e-08
6.88087e-06
8.63091e-08
6.88202e-06
9.02442e-08
6.88322e-06
8.37155e-08
6.88643e-06
8.81468e-08
8.88323e-08
6.88912e-06
7.11669e-06
2.59152e-08
7.11473e-06
4.83004e-08
7.10694e-06
-8.26293e-09
7.11299e-06
2.06377e-08
7.11919e-06
1.19047e-07
7.11857e-06
1.14563e-07
7.11954e-06
4.88443e-08
7.11867e-06
4.25277e-09
7.11223e-06
-1.16903e-08
7.10479e-06
-2.06401e-08
7.09931e-06
-1.41658e-08
7.0949e-06
1.01304e-08
7.09165e-06
3.46845e-08
7.09012e-06
5.08709e-08
7.09094e-06
6.67254e-08
7.09353e-06
8.37175e-08
7.09514e-06
8.86333e-08
7.09622e-06
8.26382e-08
7.09902e-06
8.53412e-08
8.61989e-08
7.10165e-06
7.33452e-06
2.14426e-08
7.33376e-06
4.90615e-08
7.32551e-06
-1.90029e-11
7.33086e-06
1.52881e-08
7.33807e-06
1.11839e-07
7.33724e-06
1.15394e-07
7.33715e-06
4.89322e-08
7.33681e-06
4.60026e-09
7.33112e-06
-6.00328e-09
7.32337e-06
-1.28942e-08
7.31786e-06
-8.65809e-09
7.31427e-06
1.37212e-08
7.31129e-06
3.76702e-08
7.30957e-06
5.25898e-08
7.31022e-06
6.60728e-08
7.31268e-06
8.12573e-08
7.31468e-06
8.66392e-08
7.31588e-06
8.14298e-08
7.31834e-06
8.28821e-08
8.37975e-08
7.32074e-06
7.55904e-06
1.76427e-08
7.55943e-06
4.86694e-08
7.55093e-06
8.48827e-09
7.55536e-06
1.08554e-08
7.5635e-06
1.03695e-07
7.56276e-06
1.16137e-07
7.56155e-06
5.01447e-08
7.56147e-06
4.68236e-09
7.55673e-06
-1.26643e-09
7.5489e-06
-5.05947e-09
7.54311e-06
-2.87539e-09
7.5402e-06
1.66327e-08
7.53773e-06
4.01387e-08
7.53585e-06
5.44736e-08
7.5363e-06
6.56231e-08
7.5386e-06
7.89608e-08
7.54081e-06
8.44249e-08
7.54232e-06
7.99177e-08
7.54458e-06
8.06196e-08
8.17219e-08
7.54666e-06
7.79048e-06
1.45184e-08
7.79195e-06
4.72029e-08
7.78339e-06
1.70496e-08
7.78672e-06
7.52125e-09
7.79567e-06
9.47438e-08
7.79532e-06
1.16491e-07
7.79298e-06
5.24799e-08
7.79288e-06
4.78097e-09
7.7892e-06
2.42105e-09
7.78157e-06
2.57265e-09
7.77536e-06
3.32787e-09
7.77286e-06
1.91303e-08
7.77114e-06
4.18676e-08
7.76918e-06
5.64325e-08
7.76936e-06
6.5435e-08
7.77151e-06
7.68169e-08
7.77378e-06
8.21496e-08
7.77561e-06
7.80904e-08
7.77789e-06
7.83438e-08
7.99286e-08
7.77968e-06
8.02906e-06
1.20588e-08
8.03149e-06
4.4774e-08
8.0231e-06
2.54414e-08
8.0252e-06
5.41901e-09
8.03477e-06
8.51755e-08
8.03507e-06
1.16187e-07
8.0317e-06
5.58516e-08
8.03131e-06
5.17171e-09
8.02867e-06
5.06506e-09
8.02154e-06
9.69926e-09
8.01493e-06
9.94312e-09
8.0125e-06
2.15605e-08
8.01161e-06
4.27492e-08
8.00977e-06
5.82735e-08
8.00963e-06
6.55813e-08
8.01163e-06
7.48152e-08
8.01387e-06
7.9905e-08
8.01588e-06
7.60877e-08
8.01834e-06
7.58815e-08
7.82347e-08
8.02003e-06
8.27502e-06
1.02394e-08
8.27827e-06
4.15212e-08
8.27027e-06
3.34412e-08
8.27107e-06
4.625e-09
8.28102e-06
7.52255e-08
8.2822e-06
1.15001e-07
8.27796e-06
6.00994e-08
8.27702e-06
6.10755e-09
8.27534e-06
6.7464e-09
8.26896e-06
1.60753e-08
8.26208e-06
1.68245e-08
8.25938e-06
2.42612e-08
8.25929e-06
4.28419e-08
8.25786e-06
5.97026e-08
8.25733e-06
6.61115e-08
8.25914e-06
7.30058e-08
8.26135e-06
7.7693e-08
8.26333e-06
7.41103e-08
8.26601e-06
7.31975e-08
7.63628e-08
8.26788e-06
8.52859e-06
9.0215e-09
8.53251e-06
3.76063e-08
8.52512e-06
4.08326e-08
8.52458e-06
5.15834e-09
8.53464e-06
6.51626e-08
8.53688e-06
1.1277e-07
8.53198e-06
6.49964e-08
8.5303e-06
7.78606e-09
8.5294e-06
7.64633e-09
8.52399e-06
2.14876e-08
8.51707e-06
2.37386e-08
8.51385e-06
2.74871e-08
8.51431e-06
4.238e-08
8.51361e-06
6.03993e-08
8.51274e-06
6.69851e-08
8.51423e-06
7.15194e-08
8.51646e-06
7.54587e-08
8.51828e-06
7.22859e-08
8.52104e-06
7.04382e-08
7.40665e-08
8.52334e-06
8.79002e-06
8.35279e-09
8.79442e-06
3.32114e-08
8.78784e-06
4.74102e-08
8.78601e-06
6.98497e-09
8.7959e-06
5.5279e-08
8.79927e-06
1.094e-07
8.79401e-06
7.02553e-08
8.79144e-06
1.03538e-08
8.79109e-06
7.9962e-09
8.78677e-06
2.58065e-08
8.78011e-06
3.04026e-08
8.77624e-06
3.13556e-08
8.7769e-06
4.17242e-08
8.77716e-06
6.01338e-08
8.77615e-06
6.80004e-08
8.77713e-06
7.05349e-08
8.77939e-06
7.31948e-08
8.7811e-06
7.0585e-08
8.78371e-06
6.78208e-08
7.12955e-08
8.78648e-06
9.05957e-06
8.16747e-09
9.06425e-06
2.85281e-08
9.05866e-06
5.30033e-08
9.05565e-06
9.99757e-09
9.06504e-06
4.58861e-08
9.06957e-06
1.04869e-07
9.06427e-06
7.55553e-08
9.06074e-06
1.38901e-08
9.06068e-06
8.05031e-09
9.0575e-06
2.89938e-08
9.05137e-06
3.65319e-08
9.04691e-06
3.58145e-08
9.04734e-06
4.12902e-08
9.0486e-06
5.8873e-08
9.04781e-06
6.87911e-08
9.04817e-06
7.01793e-08
9.05033e-06
7.10311e-08
9.05206e-06
6.88547e-08
9.05439e-06
6.54948e-08
6.82325e-08
9.05745e-06
9.33749e-06
8.39034e-09
9.34227e-06
2.37472e-08
9.33779e-06
5.74818e-08
9.33375e-06
1.40352e-08
9.34236e-06
3.72819e-08
9.34798e-06
9.92418e-08
9.343e-06
8.05406e-08
9.33849e-06
1.83983e-08
9.33846e-06
8.0863e-09
9.33636e-06
3.10886e-08
9.33101e-06
4.18869e-08
9.32615e-06
4.06682e-08
9.326e-06
4.1443e-08
9.32805e-06
5.6817e-08
9.32792e-06
6.89299e-08
9.32769e-06
7.04077e-08
9.3295e-06
6.9219e-08
9.3314e-06
6.69534e-08
9.33345e-06
6.34428e-08
6.51896e-08
9.3365e-06
9.62404e-06
8.93727e-09
9.62873e-06
1.9061e-08
9.62546e-06
6.07514e-08
9.6206e-06
1.88929e-08
9.62814e-06
2.97427e-08
9.63474e-06
9.26461e-08