/*--------------------------------*- C++ -*----------------------------------*\
| =========                 |                                                 |
| \\      /  F ield         | OpenFOAM: The Open Source CFD Toolbox           |
|  \\    /   O peration     | Version:  v2012                                 |
|   \\  /    A nd           | Website:  www.openfoam.com                      |
|    \\/     M anipulation  |                                                 |
\*---------------------------------------------------------------------------*/
FoamFile
{
    version     2.0;
    format      ascii;
    class       volVectorField;
    location    "0.2";
    object      U;
}
// * * * * * * * * * * * * * * * * * * * * * * * * * * * * * * * * * * * * * //

dimensions      [0 1 -1 0 0 0 0];


internalField   nonuniform List<vector> 
8000
(
(0.901745 0.00348791 0)
(1.09801 -0.00376394 0)
(0.900687 -0.000468443 0)
(1.09567 -0.0022606 0)
(0.902147 0.00724488 0)
(1.08135 0.00481301 0)
(0.898908 0.00539063 0)
(1.06062 -0.00525379 0)
(0.890681 -0.00257757 0)
(1.07954 -0.0122087 0)
(0.878516 -0.0120437 0)
(1.06479 -0.00662709 0)
(0.914868 -0.001344 0)
(1.06768 -0.000796081 0)
(0.914724 0.00806587 0)
(1.06595 0.00139509 0)
(0.899575 0.0105426 0)
(1.05957 0.00386049 0)
(0.891849 0.00688965 0)
(1.05105 0.00414089 0)
(0.913166 0.00341428 0)
(1.08181 -0.00357163 0)
(0.913157 -0.000662974 0)
(1.07842 -0.00205661 0)
(0.916789 0.00718632 0)
(1.05921 0.00504727 0)
(0.922544 0.00549863 0)
(1.03486 -0.00486179 0)
(0.920452 -0.00323499 0)
(1.04752 -0.0117244 0)
(0.914548 -0.011854 0)
(1.03004 -0.00732336 0)
(0.948362 -0.00167519 0)
(1.02885 -0.000712159 0)
(0.955066 0.00809393 0)
(1.01869 0.00187937 0)
(0.951299 0.0109655 0)
(1.00064 0.00376409 0)
(0.957857 0.00820772 0)
(0.979436 0.00349743 0)
(0.932793 0.00340039 0)
(1.05839 -0.00345128 0)
(0.935329 -0.000728565 0)
(1.05215 -0.00198507 0)
(0.94021 0.00727003 0)
(1.03035 0.00509398 0)
(0.951387 0.00567611 0)
(1.01173 -0.00477055 0)
(0.953442 -0.00349885 0)
(1.01997 -0.0116016 0)
(0.954099 -0.0116242 0)
(0.999232 -0.00790294 0)
(0.976001 -0.00165486 0)
(1.00072 -0.000827045 0)
(0.979256 0.00819732 0)
(0.996304 0.00223222 0)
(0.974331 0.0110944 0)
(0.986201 0.00398175 0)
(0.975724 0.00826102 0)
(0.977214 0.00414823 0)
(0.954528 0.00343872 0)
(1.03588 -0.00340164 0)
(0.958968 -0.000725602 0)
(1.02777 -0.00195116 0)
(0.962026 0.00743864 0)
(1.00904 0.00501591 0)
(0.973628 0.00579851 0)
(1.00071 -0.00473859 0)
(0.976055 -0.00363486 0)
(1.00586 -0.0116462 0)
(0.977867 -0.0112304 0)
(0.986882 -0.00817069 0)
(0.986621 -0.00170595 0)
(0.991649 -0.00092437 0)
(0.986173 0.00833063 0)
(0.992036 0.00229346 0)
(0.981486 0.0114172 0)
(0.986918 0.00388334 0)
(0.981684 0.0085511 0)
(0.98187 0.00463339 0)
(0.973143 0.00348655 0)
(1.0194 -0.00338777 0)
(0.977489 -0.000680738 0)
(1.01123 -0.00191629 0)
(0.97724 0.0075789 0)
(0.999008 0.0049183 0)
(0.987532 0.00581622 0)
(0.999181 -0.00471516 0)
(0.988594 -0.00372422 0)
(1.00118 -0.0116635 0)
(0.988247 -0.0108653 0)
(0.985353 -0.00824808 0)
(0.989007 -0.00182249 0)
(0.989779 -0.000934484 0)
(0.988264 0.00830553 0)
(0.991903 0.00246037 0)
(0.985784 0.011466 0)
(0.989482 0.00396826 0)
(0.986462 0.00878916 0)
(0.98593 0.0050418 0)
(0.986252 0.00351728 0)
(1.00976 -0.00338222 0)
(0.989075 -0.000621196 0)
(1.00245 -0.00186209 0)
(0.986326 0.00764773 0)
(0.996796 0.00481931 0)
(0.995867 0.00574568 0)
(1.00141 -0.00468316 0)
(0.995537 -0.00374267 0)
(1.00026 -0.0116331 0)
(0.991963 -0.0105705 0)
(0.986687 -0.00820411 0)
(0.989472 -0.00189133 0)
(0.989189 -0.000967436 0)
(0.989629 0.00822775 0)
(0.992571 0.0025778 0)
(0.989221 0.0113278 0)
(0.992399 0.00415868 0)
(0.990304 0.00878858 0)
(0.989798 0.0054491 0)
(0.994083 0.00352143 0)
(1.0051 -0.00337014 0)
(0.995147 -0.000558794 0)
(0.998633 -0.00179761 0)
(0.991558 0.00764296 0)
(0.997931 0.00471318 0)
(1.00107 0.00563394 0)
(1.00401 -0.004633 0)
(0.99977 -0.00370433 0)
(1.00042 -0.0115492 0)
(0.993092 -0.0102946 0)
(0.987985 -0.00810621 0)
(0.989793 -0.00192875 0)
(0.988834 -0.0010199 0)
(0.990643 0.0080853 0)
(0.993471 0.00263942 0)
(0.991711 0.0111197 0)
(0.994876 0.0043817 0)
(0.993062 0.00868172 0)
(0.992777 0.00589528 0)
(0.99812 0.00350201 0)
(1.00316 -0.00334704 0)
(0.997909 -0.000497928 0)
(0.997193 -0.00173635 0)
(0.994657 0.00758372 0)
(0.999704 0.00459918 0)
(1.00431 0.00551089 0)
(1.00587 -0.00456764 0)
(1.00245 -0.00363265 0)
(1.00081 -0.0113973 0)
(0.993422 -0.0100297 0)
(0.988791 -0.00799901 0)
(0.990125 -0.00194578 0)
(0.988571 -0.0010674 0)
(0.991189 0.00786933 0)
(0.994131 0.00271488 0)
(0.993217 0.0108398 0)
(0.996342 0.00462021 0)
(0.994756 0.00855334 0)
(0.994529 0.00636122 0)
(0.999912 0.00346733 0)
(1.00245 -0.00331508 0)
(0.999023 -0.000438113 0)
(0.996727 -0.00168352 0)
(0.996482 0.00748879 0)
(1.00107 0.00448111 0)
(1.00612 0.00538746 0)
(1.00692 -0.00449167 0)
(1.00402 -0.00354303 0)
(1.00122 -0.0111916 0)
(0.993611 -0.00977709 0)
(0.989243 -0.00787287 0)
(0.990351 -0.00195515 0)
(0.98829 -0.00109874 0)
(0.99119 0.00760709 0)
(0.994253 0.00280259 0)
(0.993781 0.0104915 0)
(0.996743 0.00488237 0)
(0.995467 0.00841372 0)
(0.995216 0.0068047 0)
(1.00057 0.0034244 0)
(1.00223 -0.00327691 0)
(0.999415 -0.000379796 0)
(0.996657 -0.00163808 0)
(0.997463 0.00737207 0)
(1.00186 0.00436311 0)
(1.00693 0.00526513 0)
(1.00737 -0.0044076 0)
(1.00477 -0.00345053 0)
(1.00158 -0.0109517 0)
(0.993831 -0.00952727 0)
(0.989511 -0.00772163 0)
(0.990427 -0.00196766 0)
(0.987965 -0.00109437 0)
(0.990724 0.00731103 0)
(0.993847 0.00289757 0)
(0.993596 0.0101076 0)
(0.996366 0.00516827 0)
(0.995434 0.00825423 0)
(0.995198 0.00720359 0)
(1.00072 0.00337726 0)
(1.0022 -0.00323454 0)
(0.999521 -0.000322992 0)
(0.996756 -0.00159608 0)
(0.997908 0.00724337 0)
(1.00221 0.00424856 0)
(1.00711 0.00514206 0)
(1.00748 -0.00431698 0)
(1.00499 -0.00336509 0)
(1.00185 -0.0106888 0)
(0.99408 -0.00928084 0)
(0.989703 -0.00754523 0)
(0.990402 -0.00198113 0)
(0.987669 -0.00104618 0)
(0.990027 0.00698906 0)
(0.993149 0.00300976 0)
(0.992999 0.00971051 0)
(0.995615 0.00545965 0)
(0.995007 0.00807544 0)
(0.99485 0.00755228 0)
(1.0007 0.00332767 0)
(1.00221 -0.003189 0)
(0.999528 -0.000268473 0)
(0.996915 -0.00155362 0)
(0.998069 0.00710812 0)
(1.00232 0.00413873 0)
(1.007 0.00501644 0)
(1.00743 -0.00421939 0)
(1.00493 -0.00329005 0)
(1.00199 -0.0104112 0)
(0.994319 -0.00904265 0)
(0.989874 -0.00733724 0)
(0.990362 -0.00199953 0)
(0.987487 -0.00095857 0)
(0.989365 0.00665647 0)
(0.992444 0.00314141 0)
(0.992336 0.00930546 0)
(0.994838 0.00573734 0)
(0.994509 0.00789127 0)
(0.994456 0.0078501 0)
(1.00065 0.00327616 0)
(1.00223 -0.00314045 0)
(0.999517 -0.000216841 0)
(0.997077 -0.00150816 0)
(0.99812 0.00696823 0)
(1.00231 0.0040336 0)
(1.0068 0.0048864 0)
(1.00731 -0.00411322 0)
(1.00477 -0.00322626 0)
(1.00203 -0.0101221 0)
(0.994524 -0.00881464 0)
(0.990049 -0.00709766 0)
(0.99037 -0.00202784 0)
(0.987458 -0.000837076 0)
(0.988906 0.00632579 0)
(0.991919 0.00328626 0)
(0.991827 0.00889698 0)
(0.99423 0.00599007 0)
(0.994132 0.00771578 0)
(0.994168 0.00809266 0)
(1.00061 0.00322279 0)
(1.00222 -0.00308865 0)
(0.999514 -0.000168394 0)
(0.997221 -0.00145898 0)
(0.998152 0.00682395 0)
(1.00227 0.00393341 0)
(1.00658 0.00475022 0)
(1.00716 -0.003998 0)
(1.00459 -0.00317352 0)
(1.00198 -0.00982027 0)
(0.99469 -0.00859921 0)
(0.990235 -0.00683301 0)
(0.990447 -0.00206371 0)
(0.987569 -0.000690165 0)
(0.988685 0.00600051 0)
(0.991626 0.00343333 0)
(0.991545 0.00849925 0)
(0.99384 0.00621454 0)
(0.993932 0.00755381 0)
(0.994024 0.00827528 0)
(1.00058 0.00316757 0)
(1.0022 -0.00303334 0)
(0.999523 -0.000123542 0)
(0.997346 -0.00140578 0)
(0.998195 0.00667477 0)
(1.00221 0.00383881 0)
(1.00638 0.00460716 0)
(1.007 -0.00387335 0)
(1.00443 -0.00313179 0)
(1.00188 -0.00950351 0)
(0.994824 -0.00839852 0)
(0.990432 -0.00654742 0)
(0.990584 -0.0021075 0)
(0.987776 -0.000527435 0)
(0.988654 0.00568183 0)
(0.991526 0.00357336 0)
(0.991457 0.0081271 0)
(0.99363 0.00640658 0)
(0.993881 0.00740591 0)
(0.993999 0.00840374 0)
(1.00057 0.00311045 0)
(1.00216 -0.00297443 0)
(0.999541 -8.25948e-05 0)
(0.99746 -0.0013483 0)
(0.998251 0.00652031 0)
(1.00216 0.00375009 0)
(1.00619 0.00445723 0)
(1.00683 -0.00373933 0)
(1.00428 -0.00309981 0)
(1.00177 -0.00917252 0)
(0.994938 -0.00821258 0)
(0.990634 -0.00624398 0)
(0.990761 -0.00215885 0)
(0.988037 -0.000361976 0)
(0.98874 0.00537646 0)
(0.991553 0.00369759 0)
(0.991497 0.00778582 0)
(0.993535 0.00656227 0)
(0.993927 0.00727669 0)
(0.99405 0.00848843 0)
(1.00056 0.00305136 0)
(1.00213 -0.00291169 0)
(0.999563 -4.59838e-05 0)
(0.997568 -0.00128613 0)
(0.998316 0.00636009 0)
(1.00211 0.00366765 0)
(1.00602 0.00430001 0)
(1.00666 -0.00359495 0)
(1.00414 -0.00307765 0)
(1.00164 -0.00882812 0)
(0.995042 -0.00803939 0)
(0.990839 -0.00593124 0)
(0.990962 -0.00220581 0)
(0.988326 -0.000195115 0)
(0.988886 0.00509174 0)
(0.991649 0.003799 0)
(0.991608 0.00747966 0)
(0.993506 0.00668223 0)
(0.994025 0.00716459 0)
(0.994143 0.00853186 0)
(1.00055 0.00299024 0)
(1.00209 -0.00284499 0)
(0.999588 -1.39567e-05 0)
(0.997674 -0.00121915 0)
(0.998383 0.0061939 0)
(1.00205 0.00359199 0)
(1.00584 0.00413507 0)
(1.00649 -0.00343983 0)
(1.00401 -0.00306477 0)
(1.00152 -0.00847195 0)
(0.995143 -0.00787598 0)
(0.991045 -0.00561237 0)
(0.991176 -0.00225191 0)
(0.988625 -3.77242e-05 0)
(0.989058 0.00483836 0)
(0.991776 0.00387076 0)
(0.991755 0.00720898 0)
(0.99351 0.00676984 0)
(0.994147 0.00706512 0)
(0.994258 0.00853689 0)
(1.00054 0.00292707 0)
(1.00205 -0.00277432 0)
(0.999613 1.33748e-05 0)
(0.997779 -0.00114747 0)
(0.998451 0.00602196 0)
(1.002 0.00352309 0)
(1.00567 0.00396343 0)
(1.00632 -0.0032754 0)
(1.00387 -0.00305961 0)
(1.00139 -0.00810564 0)
(0.995244 -0.00771832 0)
(0.991249 -0.00529251 0)
(0.991394 -0.00229194 0)
(0.988929 9.39114e-05 0)
(0.98924 0.00462327 0)
(0.991918 0.00390944 0)
(0.991921 0.00697075 0)
(0.993531 0.00683113 0)
(0.994278 0.00697673 0)
(0.994383 0.00850992 0)
(1.00053 0.00286178 0)
(1.00201 -0.00269935 0)
(0.999639 3.53451e-05 0)
(0.997885 -0.0010702 0)
(0.998519 0.00584323 0)
(1.00194 0.00346212 0)
(1.0055 0.0037845 0)
(1.00615 -0.00310137 0)
(1.00374 -0.0030604 0)
(1.00126 -0.00773387 0)
(0.995347 -0.0075624 0)
(0.991454 -0.00497741 0)
(0.991615 -0.00230747 0)
(0.989238 0.000200166 0)
(0.989426 0.0044452 0)
(0.992066 0.00392016 0)
(0.992098 0.00675907 0)
(0.993564 0.00687044 0)
(0.994412 0.00689611 0)
(0.994515 0.00845473 0)
(1.00053 0.00279425 0)
(1.00197 -0.00261995 0)
(0.999665 5.17234e-05 0)
(0.99799 -0.00098745 0)
(0.998587 0.00565842 0)
(1.00189 0.00340803 0)
(1.00533 0.003599 0)
(1.00598 -0.00291977 0)
(1.00362 -0.00306563 0)
(1.00114 -0.00735781 0)
(0.995452 -0.00740675 0)
(0.991658 -0.00467471 0)
(0.991834 -0.0023008 0)
(0.989549 0.000272783 0)
(0.989616 0.00430143 0)
(0.992216 0.00391167 0)
(0.992285 0.00656277 0)
(0.993605 0.00689013 0)
(0.994545 0.00682116 0)
(0.994652 0.00837417 0)
(1.00052 0.00272463 0)
(1.00194 -0.00253631 0)
(0.999693 6.25623e-05 0)
(0.998095 -0.000899549 0)
(0.998654 0.00546813 0)
(1.00183 0.00336081 0)
(1.00516 0.0034084 0)
(1.0058 -0.00273256 0)
(1.00349 -0.00307296 0)
(1.00101 -0.00698162 0)
(0.995558 -0.00724501 0)
(0.991864 -0.00439279 0)
(0.992052 -0.00226836 0)
(0.989864 0.000312099 0)
(0.989808 0.00418825 0)
(0.992368 0.00389197 0)
(0.99248 0.0063743 0)
(0.993654 0.00689393 0)
(0.994675 0.00675015 0)
(0.994795 0.00827189 0)
(1.00051 0.00265283 0)
(1.0019 -0.00244823 0)
(0.999721 6.75301e-05 0)
(0.9982 -0.000805669 0)
(0.998722 0.00527159 0)
(1.00177 0.00332126 0)
(1.00499 0.00321398 0)
(1.00563 -0.00254116 0)
(1.00337 -0.00307796 0)
(1.00089 -0.00661365 0)
(0.995664 -0.00706969 0)
(0.992071 -0.004133 0)
(0.992268 -0.00219911 0)
(0.990183 0.000330679 0)
(0.990005 0.00409793 0)
(0.99252 0.00386825 0)
(0.992683 0.00619083 0)
(0.993712 0.00688525 0)
(0.994803 0.00668351 0)
(0.994941 0.00815231 0)
(1.0005 0.00257869 0)
(1.00186 -0.00235554 0)
(0.999751 6.65175e-05 0)
(0.998304 -0.000706083 0)
(0.99879 0.00506973 0)
(1.0017 0.00328779 0)
(1.00482 0.00301723 0)
(1.00545 -0.00234923 0)
(1.00324 -0.00307853 0)
(1.00077 -0.0062555 0)
(0.995771 -0.00687639 0)
(0.992281 -0.00390101 0)
(0.99248 -0.00209969 0)
(0.990503 0.000330012 0)
(0.990207 0.0040201 0)
(0.99267 0.0038471 0)
(0.992894 0.00601093 0)
(0.993778 0.00686523 0)
(0.994926 0.00662013 0)
(0.995092 0.00801887 0)
(1.00049 0.00250231 0)
(1.00182 -0.0022582 0)
(0.999782 5.90024e-05 0)
(0.998406 -0.000601354 0)
(0.998859 0.00486281 0)
(1.00164 0.00326 0)
(1.00465 0.00281958 0)
(1.00528 -0.00215819 0)
(1.00313 -0.00307252 0)
(1.00066 -0.00591079 0)
(0.995876 -0.00666202 0)
(0.992494 -0.00369611 0)
(0.992689 -0.00197933 0)
(0.990825 0.000318996 0)
(0.990416 0.00394608 0)
(0.992818 0.00382925 0)
(0.993113 0.00583354 0)
(0.993854 0.00683566 0)
(0.995045 0.00655762 0)
(0.995245 0.00787081 0)
(1.00048 0.00242401 0)
(1.00177 -0.00215686 0)
(0.999814 4.56911e-05 0)
(0.998508 -0.000492535 0)
(0.998928 0.00465314 0)
(1.00157 0.00323524 0)
(1.00449 0.00262519 0)
(1.0051 -0.00197164 0)
(1.00301 -0.00305444 0)
(1.00055 -0.00558699 0)
(0.995979 -0.00642311 0)
(0.99271 -0.00351345 0)
(0.992896 -0.00184253 0)
(0.991147 0.000307467 0)
(0.990631 0.00387091 0)
(0.992965 0.00381631 0)
(0.993338 0.00565714 0)
(0.99394 0.0067962 0)
(0.995159 0.00649648 0)
(0.995401 0.00771014 0)
(1.00047 0.00234333 0)
(1.00173 -0.00205069 0)
(0.999847 2.58904e-05 0)
(0.998609 -0.000378122 0)
(0.998997 0.00443996 0)
(1.00151 0.00321407 0)
(1.00433 0.00243378 0)
(1.00493 -0.00179287 0)
(1.00289 -0.00302027 0)
(1.00044 -0.00528879 0)
(0.99608 -0.00616111 0)
(0.992928 -0.0033515 0)
(0.993101 -0.00169175 0)
(0.991469 0.000303947 0)
(0.990854 0.00379287 0)
(0.99311 0.00381045 0)
(0.993568 0.00548111 0)
(0.994037 0.00674519 0)
(0.995266 0.00644017 0)
(0.995558 0.00754288 0)
(1.00046 0.00226026 0)
(1.00169 -0.00193954 0)
(0.99988 -3.04935e-07 0)
(0.998708 -0.000259661 0)
(0.999067 0.00422488 0)
(1.00144 0.00319447 0)
(1.00417 0.00224959 0)
(1.00476 -0.00162419 0)
(1.00278 -0.00296859 0)
(1.00034 -0.00501333 0)
(0.99618 -0.00588432 0)
(0.993149 -0.00320102 0)
(0.993305 -0.00153873 0)
(0.991788 0.000313967 0)
(0.991083 0.00371068 0)
(0.993254 0.0038105 0)
(0.993803 0.00530744 0)
(0.994146 0.00668136 0)
(0.995367 0.00638945 0)
(0.995715 0.00737287 0)
(1.00045 0.00217554 0)
(1.00164 -0.00182519 0)
(0.999915 -3.1285e-05 0)
(0.998805 -0.000139786 0)
(0.999136 0.00401103 0)
(1.00137 0.00317368 0)
(1.00401 0.00207704 0)
(1.00459 -0.00147122 0)
(1.00266 -0.00289645 0)
(1.00025 -0.0047573 0)
(0.996278 -0.00559754 0)
(0.99337 -0.00305275 0)
(0.993509 -0.00139579 0)
(0.992105 0.000331769 0)
(0.99132 0.00362695 0)
(0.993395 0.00381475 0)
(0.99404 0.00513532 0)
(0.994267 0.00660166 0)
(0.995463 0.00634241 0)
(0.99587 0.00720261 0)
(1.00044 0.00208869 0)
(1.00159 -0.0017065 0)
(0.99995 -6.81558e-05 0)
(0.998901 -1.73596e-05 0)
(0.999206 0.0037983 0)
(1.00131 0.00315085 0)
(1.00385 0.0019161 0)
(1.00442 -0.00133626 0)
(1.00255 -0.00280408 0)
(1.00016 -0.00451871 0)
(0.996375 -0.00530471 0)
(0.993592 -0.00290439 0)
(0.993713 -0.00126029 0)
(0.99242 0.000355975 0)
(0.991564 0.00354573 0)
(0.993535 0.0038206 0)
(0.99428 0.00496451 0)
(0.994402 0.0065058 0)
(0.995554 0.00629739 0)
(0.996024 0.00703247 0)
(1.00044 0.00199988 0)
(1.00155 -0.00158384 0)
(0.999986 -0.000110046 0)
(0.998995 0.000105709 0)
(0.999275 0.00359068 0)
(1.00124 0.00312089 0)
(1.0037 0.00177265 0)
(1.00426 -0.00122136 0)
(1.00244 -0.0026937 0)
(1.00007 -0.0042921 0)
(0.996472 -0.00501371 0)
(0.993813 -0.00275035 0)
(0.993918 -0.00112749 0)
(0.992733 0.000384426 0)
(0.991815 0.00346562 0)
(0.993672 0.00383009 0)
(0.994519 0.00480082 0)
(0.994551 0.00639473 0)
(0.995641 0.00625243 0)
(0.996174 0.00686553 0)
(1.00043 0.00190942 0)
(1.0015 -0.00145792 0)
(1.00002 -0.000155335 0)
(0.999088 0.000226421 0)
(0.999343 0.00338871 0)
(1.00117 0.00308718 0)
(1.00355 0.00164573 0)
(1.00411 -0.00112607 0)
(1.00233 -0.00256945 0)
(0.999994 -0.00407125 0)
(0.996569 -0.0047309 0)
(0.994034 -0.00258928 0)
(0.994122 -0.000996066 0)
(0.993043 0.000415527 0)
(0.992073 0.00338467 0)
(0.993807 0.00384498 0)
(0.994756 0.00464718 0)
(0.994715 0.00626466 0)
(0.995727 0.00620149 0)
(0.99632 0.00670021 0)
(1.00042 0.00181725 0)
(1.00144 -0.00132879 0)
(1.00006 -0.000203324 0)
(0.999178 0.000344435 0)
(0.999411 0.00319408 0)
(1.00111 0.00304608 0)
(1.00339 0.00153704 0)
(1.00395 -0.00104938 0)
(1.00222 -0.00243573 0)
(0.999921 -0.0038528 0)
(0.996667 -0.00445813 0)
(0.994255 -0.00242547 0)
(0.994325 -0.000869943 0)
(0.99335 0.000446677 0)
(0.992339 0.00330051 0)
(0.993942 0.00386381 0)
(0.994989 0.00450778 0)
(0.994891 0.00611794 0)
(0.995812 0.00614268 0)
(0.996463 0.00653475 0)
(1.00041 0.00172358 0)
(1.00139 -0.00119712 0)
(1.00009 -0.000254548 0)
(0.999266 0.000458564 0)
(0.999476 0.00300971 0)
(1.00104 0.00299151 0)
(1.00324 0.00145154 0)
(1.00381 -0.000989074 0)
(1.00211 -0.00229543 0)
(0.999851 -0.00363219 0)
(0.996765 -0.00420061 0)
(0.994475 -0.00225948 0)
(0.994526 -0.000740496 0)
(0.993653 0.000482116 0)
(0.992613 0.00321144 0)
(0.994076 0.00388159 0)
(0.995215 0.0043854 0)
(0.99508 0.00596182 0)
(0.995898 0.00607929 0)
(0.996601 0.00637126 0)
(1.00041 0.0016292 0)
(1.00133 -0.00106449 0)
(1.00013 -0.000306453 0)
(0.999353 0.000563535 0)
(0.99954 0.0028391 0)
(1.00098 0.00292603 0)
(1.00309 0.00138563 0)
(1.00367 -0.000936692 0)
(1.00201 -0.00215622 0)
(0.999784 -0.00340736 0)
(0.996864 -0.00395115 0)
(0.994696 -0.00209591 0)
(0.994727 -0.000603012 0)
(0.993952 0.00052354 0)
(0.992895 0.00311708 0)
(0.994213 0.00389359 0)
(0.995433 0.00427795 0)
(0.99528 0.00580016 0)
(0.995986 0.00601261 0)
(0.996734 0.00620901 0)
(1.0004 0.00153353 0)
(1.00128 -0.000930209 0)
(1.00016 -0.000357437 0)
(0.999437 0.000658372 0)
(0.9996 0.00268514 0)
(1.00092 0.00284863 0)
(1.00295 0.00133474 0)
(1.00353 -0.00089115 0)
(1.00192 -0.00202231 0)
(0.999722 -0.00317735 0)
(0.996962 -0.00370304 0)
(0.994918 -0.00194076 0)
(0.994926 -0.000461025 0)
(0.994244 0.000570936 0)
(0.993184 0.0030187 0)
(0.994353 0.00389866 0)
(0.995644 0.00418378 0)
(0.995489 0.0056351 0)
(0.996075 0.00594554 0)
(0.996862 0.00604997 0)
(1.00039 0.0014373 0)
(1.00122 -0.000795784 0)
(1.0002 -0.000405706 0)
(0.99952 0.000740657 0)
(0.999658 0.00254844 0)
(1.00087 0.00275851 0)
(1.0028 0.00129747 0)
(1.00339 -0.000847847 0)
(1.00183 -0.00189778 0)
(0.999663 -0.00294247 0)
(0.99706 -0.00345688 0)
(0.995141 -0.00179527 0)
(0.995125 -0.000320477 0)
(0.994528 0.000630124 0)
(0.993479 0.00291936 0)
(0.994497 0.00389468 0)
(0.995846 0.00410142 0)
(0.995707 0.00546469 0)
(0.996168 0.00587912 0)
(0.996983 0.0058998 0)
(1.00039 0.00134108 0)
(1.00116 -0.00066209 0)
(1.00023 -0.000450649 0)
(0.999602 0.0008079 0)
(0.999712 0.00242997 0)
(1.00081 0.00265537 0)
(1.00265 0.00127318 0)
(1.00326 -0.000801881 0)
(1.00175 -0.00178328 0)
(0.99961 -0.00270639 0)
(0.997155 -0.00320986 0)
(0.995364 -0.00166395 0)
(0.995325 -0.000187376 0)
(0.994803 0.000704017 0)
(0.993778 0.00282062 0)
(0.994648 0.00387496 0)
(0.99604 0.00402999 0)
(0.995934 0.00528767 0)
(0.996265 0.00581066 0)
(0.997096 0.00576492 0)
(1.00038 0.00124451 0)
(1.0011 -0.000529213 0)
(1.00026 -0.000491494 0)
(0.999684 0.000859896 0)
(0.999761 0.00233033 0)
(1.00076 0.00254616 0)
(1.00251 0.00125326 0)
(1.00314 -0.000749782 0)
(1.00168 -0.0016781 0)
(0.999563 -0.00247452 0)
(0.997246 -0.00295991 0)
(0.995588 -0.00153761 0)
(0.995528 -5.58749e-05 0)
(0.99507 0.000791795 0)
(0.994078 0.00272885 0)
(0.994806 0.00383618 0)
(0.996224 0.00396793 0)
(0.996168 0.00510715 0)
(0.996371 0.00573401 0)
(0.9972 0.00564533 0)
(1.00038 0.00114909 0)
(1.00103 -0.000399927 0)
(1.00029 -0.000524459 0)
(0.999764 0.000893503 0)
(0.999807 0.00225002 0)
(1.00071 0.00243287 0)
(1.00237 0.00123757 0)
(1.00301 -0.000686929 0)
(1.00161 -0.00158396 0)
(0.999523 -0.00225319 0)
(0.997335 -0.00269983 0)
(0.99581 -0.00141433 0)
(0.995735 6.19432e-05 0)
(0.995328 0.000885626 0)
(0.994376 0.00265255 0)
(0.99497 0.00378264 0)
(0.996401 0.00391125 0)
(0.996408 0.00492836 0)
(0.996486 0.00564501 0)
(0.997297 0.00553913 0)
(1.00037 0.00105428 0)
(1.00097 -0.000274077 0)
(1.00032 -0.000548472 0)
(0.999845 0.000907742 0)
(0.999848 0.00218733 0)
(1.00066 0.00231442 0)
(1.00224 0.00122317 0)
(1.00289 -0.000614297 0)
(1.00155 -0.001493 0)
(0.999491 -0.0020463 0)
(0.99742 -0.00243577 0)
(0.996029 -0.00129162 0)
(0.995946 0.000156148 0)
(0.995579 0.000977921 0)
(0.99467 0.00259473 0)
(0.995141 0.00372215 0)
(0.99657 0.00385393 0)
(0.99665 0.00475334 0)
(0.996614 0.00554274 0)
(0.997388 0.00544384 0)
(1.00036 0.000961223 0)
(1.0009 -0.000153571 0)
(1.00034 -0.000562135 0)
(0.999926 0.000901797 0)
(0.999886 0.00214012 0)
(1.00061 0.00219985 0)
(1.00211 0.00119989 0)
(1.00276 -0.000533766 0)
(1.00149 -0.00140116 0)
(0.999468 -0.00185335 0)
(0.997503 -0.0021702 0)
(0.996243 -0.00116189 0)
(0.99616 0.000234529 0)
(0.995826 0.0010635 0)
(0.994959 0.00255166 0)
(0.995314 0.00366339 0)
(0.996732 0.00379363 0)
(0.996895 0.0045816 0)
(0.996755 0.00542797 0)
(0.997474 0.00535559 0)
(1.00036 0.000870187 0)
(1.00084 -3.99535e-05 0)
(1.00036 -0.000564363 0)
(1.00001 0.000878165 0)
(0.99992 0.00210256 0)
(1.00056 0.00209129 0)
(1.00198 0.00116986 0)
(1.00264 -0.000444485 0)
(1.00144 -0.00130715 0)
(0.999454 -0.00167602 0)
(0.997584 -0.00190727 0)
(0.996449 -0.00102544 0)
(0.996376 0.000302824 0)
(0.99607 0.00113958 0)
(0.995244 0.002517 0)
(0.99549 0.00361135 0)
(0.996885 0.00373259 0)
(0.997141 0.00441048 0)
(0.99691 0.00530087 0)
(0.997559 0.00527116 0)
(1.00035 0.000781773 0)
(1.00077 6.6081e-05 0)
(1.00037 -0.000553971 0)
(1.00009 0.00083767 0)
(0.999951 0.00206951 0)
(1.00051 0.0019944 0)
(1.00186 0.00113323 0)
(1.00253 -0.000351211 0)
(1.00139 -0.00120585 0)
(0.99945 -0.00151874 0)
(0.997665 -0.00165538 0)
(0.996647 -0.000877659 0)
(0.996592 0.000365908 0)
(0.996313 0.00120197 0)
(0.995526 0.00248337 0)
(0.995667 0.00356818 0)
(0.997027 0.00367968 0)
(0.997385 0.00423928 0)
(0.997081 0.00516065 0)
(0.997643 0.00518727 0)
(1.00034 0.000696705 0)
(1.0007 0.000165185 0)
(1.00038 -0.000531215 0)
(1.00017 0.000781145 0)
(0.999981 0.00204158 0)
(1.00045 0.00191251 0)
(1.00174 0.00108545 0)
(1.00241 -0.000260277 0)
(1.00134 -0.00109502 0)
(0.999454 -0.0013746 0)
(0.997748 -0.00141705 0)
(0.996837 -0.000716249 0)
(0.996807 0.000428888 0)
(0.996552 0.00125096 0)
(0.995808 0.00244415 0)
(0.995848 0.00352856 0)
(0.997158 0.00364347 0)
(0.997623 0.00407133 0)
(0.997267 0.00500613 0)
(0.997731 0.00510202 0)
(1.00033 0.000614931 0)
(1.00063 0.000255468 0)
(1.00038 -0.00049538 0)
(1.00025 0.000713006 0)
(1.00001 0.0020126 0)
(1.0004 0.00184541 0)
(1.00163 0.00103327 0)
(1.0023 -0.000174352 0)
(1.00129 -0.000973439 0)
(0.999465 -0.00123738 0)
(0.997834 -0.00119743 0)
(0.997018 -0.000548248 0)
(0.997016 0.000494607 0)
(0.996788 0.00129385 0)
(0.996088 0.00239987 0)
(0.996034 0.00348289 0)
(0.997275 0.00362612 0)
(0.997851 0.00391344 0)
(0.99747 0.0048335 0)
(0.997825 0.00501094 0)
(1.00033 0.000538111 0)
(1.00057 0.000334222 0)
(1.00037 -0.000447754 0)
(1.00033 0.000635188 0)
(1.00004 0.00197685 0)
(1.00033 0.00179712 0)
(1.00153 0.000979189 0)
(1.0022 -9.73369e-05 0)
(1.00125 -0.000840401 0)
(0.999481 -0.00110607 0)
(0.997924 -0.000999544 0)
(0.997192 -0.000378623 0)
(0.99722 0.000566484 0)
(0.997019 0.00133366 0)
(0.996366 0.00235015 0)
(0.996229 0.00342148 0)
(0.997382 0.00362476 0)
(0.998061 0.0037805 0)
(0.997685 0.00464519 0)
(0.997928 0.00490854 0)
(1.00032 0.000465658 0)
(1.0005 0.000401023 0)
(1.00035 -0.000387005 0)
(1.0004 0.000551296 0)
(1.00007 0.00193271 0)
(1.00027 0.00176622 0)
(1.00142 0.000925693 0)
(1.00211 -3.26968e-05 0)
(1.0012 -0.000699246 0)
(0.9995 -0.000972702 0)
(0.998018 -0.000824976 0)
(0.997361 -0.000212124 0)
(0.997417 0.000649652 0)
(0.997242 0.0013735 0)
(0.996639 0.00229865 0)
(0.996435 0.0033406 0)
(0.997483 0.003627 0)
(0.99825 0.00368414 0)
(0.997908 0.00445264 0)
(0.998043 0.00479108 0)
(1.00031 0.000398768 0)
(1.00044 0.000455535 0)
(1.00033 -0.000315255 0)
(1.00047 0.000464539 0)
(1.0001 0.00187791 0)
(1.0002 0.00175233 0)
(1.00132 0.000879851 0)
(1.00202 1.65706e-05 0)
(1.00116 -0.000555338 0)
(0.999519 -0.00083324 0)
(0.998115 -0.000670456 0)
(0.997527 -5.28182e-05 0)
(0.997607 0.000741923 0)
(0.997455 0.00141449 0)
(0.996905 0.00225155 0)
(0.996652 0.00324373 0)
(0.997587 0.00361616 0)
(0.998416 0.00362326 0)
(0.998129 0.00426949 0)
(0.99817 0.0046575 0)
(1.0003 0.000338008 0)
(1.00038 0.000496956 0)
(1.0003 -0.00023426 0)
(1.00054 0.000378273 0)
(1.00014 0.00181037 0)
(1.00013 0.00175216 0)
(1.00121 0.00084064 0)
(1.00194 5.00328e-05 0)
(1.00112 -0.000415185 0)
(0.999538 -0.00068472 0)
(0.998215 -0.000530957 0)
(0.997691 9.30584e-05 0)
(0.99779 0.000838977 0)
(0.997659 0.00145912 0)
(0.997161 0.002214 0)
(0.996876 0.00313661 0)
(0.997699 0.00358059 0)
(0.998561 0.00358921 0)
(0.998341 0.00411119 0)
(0.998305 0.00451553 0)
(1.00029 0.000283233 0)
(1.00032 0.000524961 0)
(1.00026 -0.000144531 0)
(1.0006 0.000296938 0)
(1.00018 0.00172804 0)
(1.00006 0.00176033 0)
(1.0011 0.000817061 0)
(1.00186 6.98106e-05 0)
(1.00109 -0.000283021 0)
(0.999556 -0.000525303 0)
(0.998315 -0.000399819 0)
(0.997856 0.000214857 0)
(0.997967 0.000935258 0)
(0.997852 0.00150869 0)
(0.997403 0.00218743 0)
(0.997103 0.00302821 0)
(0.997823 0.00351566 0)
(0.998695 0.00356317 0)
(0.998538 0.00398514 0)
(0.998442 0.00437655 0)
(1.00028 0.000235317 0)
(1.00026 0.00053919 0)
(1.00022 -4.8781e-05 0)
(1.00066 0.000223853 0)
(1.00023 0.00163126 0)
(0.999991 0.00177305 0)
(1.00099 0.000810467 0)
(1.0018 8.03199e-05 0)
(1.00106 -0.000164373 0)
(0.999571 -0.000357572 0)
(0.998411 -0.000270166 0)
(0.998019 0.000312067 0)
(0.998142 0.00102574 0)
(0.998036 0.00156341 0)
(0.997631 0.00216823 0)
(0.997328 0.00292878 0)
(0.99796 0.00342663 0)
(0.998824 0.00352392 0)
(0.998722 0.00388942 0)
(0.998577 0.00425364 0)
(1.00027 0.000193735 0)
(1.00021 0.000540962 0)
(1.00017 5.30218e-05 0)
(1.0007 0.000160523 0)
(1.00028 0.0015192 0)
(0.999923 0.00178643 0)
(1.00087 0.000822162 0)
(1.00173 8.43955e-05 0)
(1.00104 -6.3348e-05 0)
(0.999587 -0.000186584 0)
(0.998499 -0.000136688 0)
(0.998181 0.000386254 0)
(0.998316 0.00110311 0)
(0.998211 0.0016246 0)
(0.997845 0.00215489 0)
(0.997546 0.00284367 0)
(0.998105 0.00332464 0)
(0.998957 0.00345895 0)
(0.998898 0.00380622 0)
(0.998703 0.00415453 0)
(1.00026 0.000159065 0)
(1.00017 0.00053014 0)
(1.00011 0.000157023 0)
(1.00074 0.000110354 0)
(1.00034 0.00139529 0)
(0.999859 0.00179595 0)
(1.00075 0.000853728 0)
(1.00167 8.37016e-05 0)
(1.00104 1.82294e-05 0)
(0.999603 -2.14907e-05 0)
(0.998579 1.04679e-06 0)
(0.998339 0.000446503 0)
(0.998493 0.00116011 0)
(0.998379 0.00169039 0)
(0.998045 0.00214759 0)
(0.997754 0.00277002 0)
(0.99825 0.00322309 0)
(0.999094 0.00337043 0)
(0.999075 0.00371396 0)
(0.998826 0.00407415 0)
(1.00025 0.000131245 0)
(1.00013 0.000507603 0)
(1.00006 0.000259408 0)
(1.00076 7.68484e-05 0)
(1.0004 0.00126201 0)
(0.999802 0.00179592 0)
(1.00062 0.000903226 0)
(1.00161 8.63759e-05 0)
(1.00104 7.84785e-05 0)
(0.999623 0.000140209 0)
(0.998648 0.000151036 0)
(0.99849 0.000503915 0)
(0.998674 0.00119218 0)
(0.998542 0.00175549 0)
(0.998229 0.00214991 0)
(0.997953 0.00270262 0)
(0.998393 0.00313197 0)
(0.999231 0.00326719 0)
(0.999259 0.00360149 0)
(0.998951 0.00400012 0)
(1.00023 0.000110007 0)
(1.00009 0.000475621 0)
(0.999995 0.000358359 0)
(1.00078 5.87494e-05 0)
(1.00046 0.00112193 0)
(0.999755 0.0017839 0)
(1.00049 0.000970765 0)
(1.00154 9.89735e-05 0)
(1.00106 0.00011906 0)
(0.999651 0.000291163 0)
(0.998706 0.000315173 0)
(0.998628 0.000566377 0)
(0.998857 0.00119792 0)
(0.998705 0.00181073 0)
(0.998399 0.00216606 0)
(0.998141 0.00263812 0)
(0.99853 0.00305242 0)
(0.999363 0.00316394 0)
(0.999453 0.00346517 0)
(0.999087 0.00391558 0)
(1.00022 9.5024e-05 0)
(1.00007 0.000434987 0)
(0.999934 0.000451099 0)
(1.00078 5.80452e-05 0)
(1.00053 0.000979408 0)
(0.999719 0.00175757 0)
(1.00035 0.00104979 0)
(1.00147 0.000121994 0)
(1.00108 0.000143334 0)
(0.999689 0.000419503 0)
(0.998755 0.000484656 0)
(0.998748 0.000642216 0)
(0.999041 0.00118177 0)
(0.998873 0.0018457 0)
(0.998554 0.00219791 0)
(0.998318 0.00257864 0)
(0.998663 0.0029763 0)
(0.999482 0.00307729 0)
(0.999651 0.00331351 0)
(0.999242 0.0038048 0)
(1.0002 8.57196e-05 0)
(1.00005 0.000388109 0)
(0.999875 0.000534799 0)
(1.00077 7.46923e-05 0)
(1.00059 0.000837638 0)
(0.999697 0.00171387 0)
(1.00021 0.00113646 0)
(1.00139 0.000159827 0)
(1.00111 0.000153318 0)
(0.999739 0.000523316 0)
(0.998799 0.000650249 0)
(0.998847 0.000735881 0)
(0.999221 0.00115358 0)
(0.999052 0.00185006 0)
(0.998699 0.00224072 0)
(0.998478 0.00253327 0)
(0.998792 0.00289439 0)
(0.999587 0.00301063 0)
(0.999842 0.00316684 0)
(0.999418 0.0036613 0)
(1.00019 8.19471e-05 0)
(1.00003 0.000336439 0)
(0.999819 0.000607252 0)
(1.00074 0.000107972 0)
(1.00066 0.000700862 0)
(0.999689 0.00165097 0)
(1.00008 0.00122621 0)
(1.0013 0.000215659 0)
(1.00115 0.000155201 0)
(0.999804 0.000602084 0)
(0.998842 0.000804527 0)
(0.998924 0.000848676 0)
(0.999389 0.0011294 0)
(0.999242 0.00181935 0)
(0.99884 0.00228178 0)
(0.998618 0.00251238 0)
(0.998919 0.00280504 0)
(0.99968 0.00295076 0)
(1.00002 0.0030457 0)
(0.999611 0.00349531 0)
(1.00017 8.24435e-05 0)
(1.00002 0.000283135 0)
(0.999768 0.000667147 0)
(1.00071 0.000155831 0)
(1.00072 0.000573111 0)
(0.999698 0.00157101 0)
(0.999949 0.0013144 0)
(1.00119 0.000290134 0)
(1.00118 0.000154763 0)
(0.999883 0.000655995 0)
(0.998889 0.000941388 0)
(0.99898 0.000976798 0)
(0.999538 0.00112222 0)
(0.999443 0.00175607 0)
(0.998988 0.00230371 0)
(0.998738 0.00252092 0)
(0.999036 0.00271966 0)
(0.99977 0.00288112 0)
(1.00017 0.00295336 0)
(0.999807 0.00332973 0)
(1.00016 8.66058e-05 0)
(1.00002 0.000230506 0)
(0.999722 0.000713042 0)
(1.00066 0.000214356 0)
(1.00078 0.000460209 0)
(0.999723 0.00147466 0)
(0.999827 0.0013937 0)
(1.00108 0.000382943 0)
(1.00121 0.000156933 0)
(0.999976 0.000685646 0)
(0.998945 0.0010553 0)
(0.999019 0.00111178 0)
(0.99966 0.00113986 0)