/*--------------------------------*- C++ -*----------------------------------*\
| =========                 |                                                 |
| \\      /  F ield         | OpenFOAM: The Open Source CFD Toolbox           |
|  \\    /   O peration     | Version:  v2012                                 |
|   \\  /    A nd           | Website:  www.openfoam.com                      |
|    \\/     M anipulation  |                                                 |
\*---------------------------------------------------------------------------*/
FoamFile
{
    version     2.0;
    format      ascii;
    class       volScalarField;
    location    "0.1";
    object      p;
}
// * * * * * * * * * * * * * * * * * * * * * * * * * * * * * * * * * * * * * //

dimensions      [0 2 -2 0 0 0 0];


internalField   nonuniform List<scalar> 
8000
(
2.11119e-11
0.0041832
0.00389689
0.00324484
0.00417481
0.00343587
0.00410504
0.00505468
0.00475242
0.00497475
0.0061228
0.00636409
0.00654833
0.00735762
0.00813665
0.00944541
0.0106178
0.0121387
0.0144601
0.0177611
5.60455e-06
0.00417877
0.00389759
0.00324666
0.00417512
0.00343092
0.00410705
0.00505561
0.00475655
0.00496806
0.00611954
0.00636072
0.00655661
0.00734915
0.00814971
0.00944259
0.0106155
0.0120822
0.0144827
0.0174609
1.35502e-05
0.00417315
0.00389849
0.00324641
0.0041758
0.00342979
0.00410853
0.00505288
0.00476364
0.00496093
0.00611332
0.00636101
0.00656436
0.00733238
0.00817369
0.00943258
0.0106054
0.0120284
0.0144726
0.0170615
2.514e-05
0.00417209
0.00389733
0.00324307
0.00418016
0.00343397
0.0041081
0.00504658
0.00477534
0.0049553
0.00610511
0.00636446
0.00657251
0.00731233
0.00820139
0.00941938
0.0105928
0.0119755
0.0144094
0.016731
4.16603e-05
0.00417516
0.0038928
0.00323764
0.004189
0.00344161
0.00410635
0.00503861
0.00479108
0.00494982
0.00609754
0.00636975
0.00658172
0.00729048
0.00823044
0.00940314
0.01058
0.0119141
0.0143257
0.01643
6.27482e-05
0.00417996
0.00388505
0.0032314
0.00420125
0.00345091
0.00410388
0.00503045
0.00480909
0.00494417
0.00609144
0.00637531
0.00659117
0.0072685
0.00825915
0.0093848
0.0105646
0.0118492
0.014223
0.0161377
8.71665e-05
0.00418506
0.00387511
0.00322516
0.0042155
0.00346052
0.00410112
0.00502275
0.00482803
0.0049382
0.00608647
0.00637996
0.00660055
0.00724737
0.00828565
0.00936604
0.0105442
0.0117808
0.0140991
0.0158518
0.000113735
0.00418992
0.00386415
0.00321915
0.00423064
0.00346978
0.00409838
0.00501559
0.00484701
0.00493181
0.00608235
0.00638328
0.00660967
0.00722716
0.00830903
0.00934808
0.0105166
0.0117086
0.0139566
0.0155704
0.000141656
0.00419435
0.00385299
0.00321322
0.004246
0.00347855
0.00409587
0.00500875
0.00486553
0.0049251
0.00607886
0.00638534
0.0066181
0.00720804
0.00832861
0.00933106
0.0104807
0.0116332
0.0137976
0.0152911
0.000170497
0.00419832
0.00384212
0.00320718
0.00426129
0.00348687
0.00409371
0.00500207
0.00488339
0.00491817
0.00607576
0.00638646
0.0066254
0.00719043
0.00834344
0.009315
0.0104365
0.0115541
0.0136243
0.0150127
0.00020007
0.00420181
0.0038318
0.00320085
0.00427644
0.0034948
0.00409192
0.00499545
0.00490048
0.00491114
0.00607279
0.00638705
0.00663105
0.00717469
0.00835272
0.0092999
0.0103839
0.0114699
0.0134391
0.0147345
0.000230318
0.00420477
0.00382215
0.00319416
0.00429142
0.00350239
0.00409047
0.00498889
0.00491672
0.00490418
0.00606966
0.00638756
0.00663452
0.00716109
0.00835605
0.00928549
0.0103234
0.0113797
0.0132446
0.0144556
0.000261241
0.00420714
0.00381324
0.00318707
0.00430622
0.00350967
0.00408932
0.00498243
0.00493201
0.00489743
0.00606603
0.00638841
0.00663525
0.00714979
0.00835327
0.00927124
0.0102555
0.0112827
0.0130427
0.0141761
0.000292859
0.00420884
0.00380514
0.00317955
0.00432083
0.00351667
0.00408839
0.00497618
0.0049462
0.00489106
0.00606154
0.00639005
0.00663283
0.00714072
0.00834443
0.0092564
0.0101811
0.0111778
0.0128356
0.0138964
0.0003252
0.00420978
0.0037979
0.00317159
0.00433522
0.00352341
0.0040876
0.00497023
0.00495914
0.00488528
0.00605582
0.00639279
0.00662697
0.00713371
0.00832981
0.00923986
0.0101013
0.0110645
0.0126248
0.0136168
0.000358297
0.00420989
0.00379159
0.0031632
0.00434937
0.00352994
0.00408684
0.00496472
0.00497065
0.00488034
0.00604849
0.00639685
0.00661754
0.00712835
0.00830993
0.00922038
0.0100172
0.0109427
0.0124114
0.013338
0.000392181
0.00420907
0.00378627
0.00315436
0.00436324
0.00353632
0.00408598
0.00495978
0.00498054
0.00487644
0.0060392
0.00640238
0.00660462
0.00712394
0.00828561
0.00919673
0.00992994
0.0108122
0.0121957
0.0130606
0.000426889
0.00420722
0.00378197
0.00314508
0.00437679
0.00354264
0.00408488
0.00495558
0.00498862
0.00487377
0.00602768
0.00640935
0.00658846
0.00711965
0.00825783
0.00916762
0.00984021
0.0106739
0.011978
0.0127854
0.000462456
0.00420425
0.00377877
0.00313538
0.00438996
0.00354898
0.00408335
0.00495229
0.0049947
0.00487251
0.00601383
0.00641747
0.00656954
0.0071145
0.00822772
0.00913183
0.00974831
0.0105292
0.0117585
0.0125126
0.000498921
0.00420005
0.00377669
0.00312528
0.00440268
0.00355545
0.00408122
0.00495007
0.00499859
0.00487274
0.0059976
0.00642644
0.00654844
0.00710715
0.00819642
0.00908874
0.0096542
0.0103794
0.0115374
0.0122424
0.000536321
0.00419454
0.00377577
0.00311479
0.00441488
0.0035622
0.00407828
0.0049491
0.00500015
0.00487442
0.00597913
0.00643575
0.00652585
0.00709628
0.0081647
0.00903857
0.00955745
0.0102259
0.0113153
0.0119749
0.000574695
0.00418762
0.00377606
0.00310397
0.00442647
0.00356939
0.0040743
0.00494953
0.00499926
0.00487744
0.00595871
0.00644467
0.00650277
0.00708081
0.00813262
0.00898192
0.00945719
0.0100694
0.0110929
0.0117103
0.000614082
0.00417919
0.00377758
0.00309285
0.00443731
0.00357718
0.00406907
0.00495149
0.00499592
0.0048816
0.00593668
0.0064524
0.0064803
0.00705998
0.00809971
0.00891974
0.00935259
0.00991026
0.0108714
0.0114492
0.000654522
0.00416916
0.00378034
0.00308152
0.00444728
0.00358577
0.00406236
0.00495505
0.00499017
0.00488659
0.00591362
0.0064579
0.00645922
0.00703343
0.00806525
0.00885345
0.00924324
0.00974824
0.0106513
0.0111923
0.000696053
0.00415744
0.00378435
0.00307004
0.00445624
0.00359537
0.00405394
0.00496026
0.00498218
0.00489189
0.00589024
0.00646026
0.00643992
0.00700133
0.00802813
0.00878426
0.00912933
0.00958292
0.0104331
0.0109403
0.000738712
0.00414396
0.0037896
0.00305852
0.00446401
0.0036062
0.0040436
0.00496707
0.00497228
0.0048969
0.00586726
0.00645869
0.00642239
0.00696437
0.00798688
0.00871277
0.00901192
0.00941414
0.0102163
0.0106937
0.000782536
0.00412864
0.00379605
0.00304707
0.00447039
0.00361849
0.00403118
0.00497535
0.0049609
0.0049009
0.00584541
0.0064526
0.00640635
0.00692366
0.00793999
0.00863907
0.00889253
0.00924195
0.0100001
0.0104527
0.000827556
0.00411142
0.00380366
0.00303584
0.00447516
0.00363248
0.00401654
0.0049849
0.00494853
0.00490303
0.00582537
0.0064419
0.00639103
0.00688045
0.00788679
0.0085628
0.00877246
0.00906674
0.00978365
0.0102175
0.000873802
0.00409225
0.00381239
0.00302498
0.00447814
0.00364838
0.00399956
0.00499541
0.0049358
0.00490249
0.00580766
0.00642673
0.00637506
0.00683594
0.0078273
0.00848317
0.00865285
0.00888974
0.00956598
0.00998728
0.000921302
0.0040711
0.00382222
0.00301466
0.00447909
0.00366637
0.00398027
0.0050064
0.00492347
0.00489853
0.0057924
0.00640759
0.00635724
0.00679103
0.00776166
0.0083988
0.00853443
0.00871288
0.00934656
0.009761
0.000970074
0.00404796
0.00383286
0.00300509
0.00447777
0.00368664
0.00395874
0.00501733
0.00491239
0.00489039
0.0057793
0.00638567
0.00633611
0.00674607
0.00769093
0.00830832
0.00841684
0.00853831
0.00912571
0.00953747
0.00102013
0.00402282
0.00384425
0.00299645
0.00447394
0.00370934
0.00393511
0.00502756
0.00490336
0.00487757
0.00576783
0.00636215
0.00631036
0.00670085
0.00761694
0.00821101
0.00829883
0.00836808
0.00890473
0.00931548
0.00107149
0.0039957
0.00385627
0.00298899
0.00446736
0.00373454
0.00390964
0.00503637
0.00489712
0.00485994
0.00575701
0.00633827
0.00627937
0.00665453
0.00754152
0.00810719
0.00817856
0.00820343
0.00868581
0.00909406
0.00112414
0.00396666
0.00386873
0.00298295
0.00445778
0.00376226
0.00388274
0.00504297
0.0048944
0.0048376
0.00574553
0.00631545
0.00624286
0.00660603
0.00746647
0.00799823
0.00805377
0.00804428
0.00847172
0.00887311
0.00117808
0.00393576
0.00388141
0.00297855
0.00444503
0.00379244
0.00385483
0.00504655
0.00489576
0.00481079
0.00573196
0.0062949
0.00620101
0.00655474
0.0073929
0.00788621
0.00792257
0.00788902
0.00826524
0.00865377
0.00123328
0.00390309
0.00389409
0.00297605
0.00442895
0.00382492
0.00382646
0.00504634
0.00490147
0.00478013
0.00571473
0.00627732
0.0061548
0.00649589
0.00732066
0.00777397
0.00778431
0.00773488
0.00806817
0.00843824
0.00128972
0.00386878
0.00390652
0.00297571
0.00440938
0.00385947
0.00379833
0.00504146
0.00491161
0.00474672
0.00569222
0.00626287
0.006106
0.00642855
0.0072485
0.0076645
0.00763995
0.00757838
0.00788066
0.00822931
0.00134735
0.003833
0.00391842
0.00297773
0.00438631
0.00389578
0.00377104
0.00503114
0.00492604
0.00471181
0.00566301
0.00625114
0.00605673
0.00635197
0.00717453
0.00756028
0.00749206
0.00741606
0.00770067
0.00802981
0.00140611
0.0037959
0.00392951
0.00298233
0.00435974
0.00393337
0.00374536
0.00501478
0.00494433
0.0046768
0.00562604
0.00624138
0.00600918
0.00626606
0.00709619
0.00746278
0.0073445
0.00724541
0.00752422
0.00784166
0.00146594
0.00375771
0.0039395
0.00298972
0.00432969
0.00397174
0.0037221
0.00499189
0.00496575
0.00464319
0.00558057
0.00623182
0.00596548
0.00617171
0.00701062
0.00737196
0.00720172
0.00706607
0.00734591
0.00766498
0.00152674
0.00371865
0.00394808
0.003
0.00429632
0.00401029
0.00370193
0.00496216
0.00498941
0.00461248
0.00552615
0.00622084
0.00592763
0.00607072
0.00691511
0.00728616
0.00706816
0.00688032
0.00715996
0.00749764
0.00158843
0.00367899
0.00395497
0.00301328
0.00425982
0.00404833
0.00368559
0.00492562
0.00501398
0.00458618
0.00546283
0.00620622
0.00589708
0.00596527
0.00680761
0.00720253
0.00694745
0.00669286
0.00696135
0.00733538
0.00165087
0.00363901
0.0039599
0.00302957
0.00422049
0.00408513
0.00367375
0.00488249
0.00503795
0.00456561
0.00539137
0.00618566
0.00587408
0.00585806
0.00668718
0.0071175
0.00684137
0.0065099
0.0067474
0.00717229
0.00171394
0.00359901
0.00396261
0.00304884
0.00417876
0.00411989
0.00366685
0.00483318
0.00505983
0.00455168
0.00531307
0.00615674
0.00585808
0.00575247
0.00655416
0.00702717
0.00674929
0.00633829
0.0065189
0.00700172
0.00177749
0.0035593
0.00396287
0.00307097
0.00413508
0.00415184
0.00366521
0.00477836
0.0050781
0.0045449
0.00522958
0.00611723
0.00584783
0.00565206
0.00641007
0.00692786
0.00666812
0.00618459
0.00628067
0.00681757
0.00184136
0.00352019
0.00396051
0.00309577
0.00409
0.0041802
0.00366898
0.00471901
0.00509117
0.00454532
0.00514312
0.00606557
0.00584142
0.00555984
0.00625734
0.00681672
0.00659313
0.0060538
0.00604109
0.00661559
0.00190539
0.00348199
0.00395538
0.00312298
0.00404414
0.00420427
0.0036781
0.00465626
0.00509763
0.00455251
0.00505605
0.00600086
0.00583626
0.00547807
0.00609897
0.00669224
0.00651883
0.00594803
0.00581042
0.00639481
0.00196938
0.00344503
0.00394739
0.00315227
0.00399813
0.00422344
0.00369228
0.00459135
0.00509635
0.00456561
0.0049707
0.00592292
0.00582942
0.00540817
0.00593832
0.00655447
0.0064397
0.00586567
0.00559936
0.00615824
0.00203314
0.00340958
0.00393649
0.00318327
0.00395255
0.00423721
0.00371111
0.00452564
0.00508647
0.0045833
0.00488931
0.00583236
0.00581775
0.00535051
0.00577889
0.00640474
0.0063511
0.0058017
0.00541747
0.00591265
0.00209647
0.00337593
0.00392269
0.00321554
0.00390803
0.00424524
0.00373396
0.00446045
0.00506735
0.00460392
0.00481383
0.00573058
0.00579816
0.00530448
0.00562406
0.00624539
0.00625015
0.0057491
0.00527112
0.00566717
0.00215918
0.00334433
0.00390608
0.00324856
0.00386519
0.00424736
0.00375997
0.00439706
0.00503877
0.00462557
0.0047457
0.00561955
0.00576799
0.00526853
0.00547686
0.00607928
0.00613607
0.00569997
0.00516191
0.00543194
0.00222105
0.00331501
0.00388677
0.00328184
0.00382342
0.0042435
0.0037882
0.00433663
0.00500094
0.00464626
0.00468568
0.00550172
0.00572519
0.00524037
0.0053398
0.00590936
0.00600994
0.00564669
0.0050862
0.00521648
0.00228189
0.00328809
0.00386495
0.00331487
0.00378581
0.00423381
0.00381752
0.00428014
0.00495441
0.00466401
0.0046341
0.00537994
0.00566854
0.00521703
0.00521469
0.00573842
0.0058742
0.00558317
0.00503609
0.00502796
0.0023415
0.00326373
0.00384088
0.00334712
0.0037514
0.00421853
0.00384679
0.00422835
0.00490005
0.00467701
0.00459075
0.00525712
0.00559773
0.00519514
0.00510264
0.00556895
0.00573187
0.00550586
0.00500136
0.00486987
0.00239967
0.00324204
0.00381485
0.00337807
0.00372039
0.00419807
0.00387488
0.00418171
0.00483901
0.00468372
0.00455487
0.00513603
0.00551337
0.00517119
0.00500395
0.00540318
0.00558585
0.00541398
0.00497091
0.00474142
0.00245624
0.00322306
0.00378717
0.00340723
0.00369295
0.00417297
0.00390074
0.00414038
0.00477266
0.00468288
0.00452522
0.00501914
0.00541693
0.00514191
0.00491804
0.00524307
0.00543837
0.00530895
0.00493481
0.00463831
0.00251104
0.00320679
0.00375821
0.00343414
0.00366908
0.00414388
0.00392342
0.00410432
0.00470243
0.00467359
0.00450021
0.00490835
0.00531057
0.00510454
0.00484345
0.00509042
0.00529098
0.00519353
0.00488595
0.00455401
0.00256392
0.00319319
0.00372834
0.00345842
0.00364868
0.00411149
0.00394212
0.00407317
0.00462987
0.00465545
0.0044781
0.0048049
0.00519687
0.00505709
0.00477802
0.00494675
0.00514456
0.005071
0.00482076
0.00448105
0.00261475
0.00318217
0.00369794
0.00347976
0.00363153
0.00407658
0.00395644
0.00404635
0.00455645
0.00462854
0.00445704
0.00470927
0.00507865
0.00499859
0.00471897
0.00481317
0.0049997
0.00494439
0.00473901
0.00441233
0.0026634
0.00317359
0.00366741
0.00349789
0.00361732
0.00403985
0.00396518
0.00402315
0.00448343
0.00459322
0.00443523
0.0046214
0.00495869
0.00492902
0.00466321
0.00469026
0.00485699
0.00481609
0.00464301
0.00434224
0.00270979
0.00316732
0.00363708
0.00351267
0.00360566
0.00400201
0.00396851
0.00400277
0.00441188
0.00455021
0.00441117
0.00454074
0.00483947
0.00484922
0.00460769
0.00457798
0.00471719
0.00468773
0.0045365
0.00426725
0.00275383
0.00316316
0.00360729
0.00352401
0.0035961
0.0039637
0.0039664
0.00398429
0.0043426
0.00450045
0.00438365
0.00446637
0.00472301
0.00476071
0.00454975
0.00447562
0.0045813
0.00456025
0.00442359
0.00418594
0.00279549
0.0031609
0.00357833
0.00353192
0.00358816
0.00392548
0.00395897
0.00396681
0.00427615
0.00444504
0.00435179
0.00439714
0.00461074
0.00466548
0.0044874
0.00438176
0.00445047
0.00443427
0.00430794
0.00409859
0.00283473
0.00316032
0.00355043
0.00353648
0.00358133
0.00388779
0.0039465
0.00394944
0.00421278
0.00438515
0.00431508
0.00433183
0.00450353
0.00456567
0.00441947
0.00429452
0.00432574
0.00431027
0.00419226
0.0040065
0.00287153
0.00316119
0.00352379
0.0035378
0.00357512
0.003851
0.00392936
0.00393148
0.00415256
0.00432195
0.00427335
0.0042692
0.00440172
0.00446339
0.00434561
0.00421179
0.00420785
0.00418882
0.00407831
0.00391138
0.00290589
0.00316325
0.00349855
0.0035361
0.00356907
0.00381533
0.00390797
0.00391207
0.0040954
0.00425657
0.00422672
0.00420813
0.00430521
0.0043605
0.00426619
0.00413155
0.004097
0.0040706
0.00396697
0.00381487
0.00293785
0.00316628
0.00347481
0.00353159
0.00356273
0.00378091
0.00388288
0.00389079
0.004041
0.00418997
0.00417553
0.00414767
0.00421361
0.0042585
0.00418212
0.00405213
0.00399289
0.00395628
0.00385861
0.0037183
0.00296744
0.00317002
0.00345259
0.00352453
0.00355575
0.00374776
0.00385467
0.00386727
0.00398893
0.00412298
0.00412032
0.00408706
0.00412637
0.00415848
0.00409461
0.00397232
0.00389476
0.00384643
0.00375333
0.00362257
0.00299469
0.00317426
0.00343189
0.00351523
0.00354782
0.00371584
0.00382389
0.00384131
0.00393875
0.00405625
0.0040617
0.00402578
0.00404286
0.00406112
0.00400498
0.00389146
0.0038016
0.00374139
0.00365116
0.00352829
0.00301967
0.00317878
0.00341267
0.00350397
0.00353869
0.00368503
0.00379106
0.00381282
0.00388999
0.00399026
0.00400038
0.00396351
0.00396243
0.00396682
0.00391446
0.0038094
0.00371229
0.0036412
0.00355216
0.00343582
0.00304243
0.00318336
0.00339485
0.00349102
0.00352821
0.00365517
0.00375666
0.00378186
0.00384221
0.00392533
0.00393704
0.00390013
0.0038845
0.00387566
0.00382412
0.00372632
0.00362584
0.00354566
0.00345642
0.0033454
0.00306306
0.00318784
0.00337831
0.00347663
0.00351625
0.00362607
0.0037211
0.00374855
0.00379503
0.00386162
0.00387235
0.00383565
0.00380855
0.00378762
0.00373478
0.00364269
0.00354148
0.00345436
0.00336399
0.0032572
0.00308161
0.00319205
0.00336292
0.00346044
0.00350279
0.00359753
0.00368472
0.00371311
0.00374811
0.00379922
0.00380691
0.00377023
0.00373418
0.00370251
0.00364703
0.00355905
0.00345871
0.00336678
0.0032749
0.00317138
0.00309817
0.00319585
0.00334857
0.0034442
0.00348784
0.00356936
0.00364781
0.0036758
0.00370123
0.00373811
0.00374123
0.0037041
0.00366111
0.00362014
0.00356127
0.00347596
0.00337727
0.00328243
0.00318908
0.00308806
0.00311281
0.00319912
0.0033351
0.00342729
0.00347146
0.00354139
0.00361059
0.00363693
0.00365422
0.00367824
0.00367574
0.00363755
0.00358913
0.00354028
0.00347773
0.00339392
0.00329711
0.00320087
0.0031064
0.0030073
0.00312561
0.00320177
0.00332236
0.00340984
0.00345373
0.00351346
0.00357323
0.00359679
0.003607
0.00361951
0.00361077
0.00357091
0.00351816
0.00346274
0.00339653
0.00331333
0.00321832
0.00312177
0.00302667
0.00292914
0.00313665
0.00320372
0.0033102
0.00339198
0.00343476
0.00348545
0.00353585
0.00355568
0.00355955
0.00356185
0.0035466
0.00350448
0.00344817
0.00338734
0.00331768
0.00323451
0.00314104
0.00304491
0.00294972
0.00285356
0.00314601
0.00320491
0.00329847
0.00337384
0.0034147
0.00345727
0.00349854
0.00351388
0.00351193
0.00350517
0.00348341
0.00343857
0.00337922
0.00331397
0.0032412
0.00315768
0.00306546
0.00297016
0.00287536
0.00278051
0.00315377
0.0032053
0.00328704
0.0033555
0.00339369
0.0034289
0.00346139
0.00347167
0.00346421
0.00344945
0.00342136
0.00337344
0.00331139
0.00324253
0.00316704
0.00308298
0.00299175
0.0028975
0.00280345
0.00270994
0.00316
0.00320487
0.00327579
0.00333706
0.00337191
0.00340031
0.00342445
0.00342928
0.00341653
0.00339464
0.00336054
0.00330935
0.00324481
0.00317299
0.00309518
0.0030105
0.00292005
0.00282693
0.0027339
0.00264177
0.00316478
0.00320359
0.00326462
0.00331857
0.0033495
0.00337152
0.00338777
0.00338692
0.00336905
0.00334078
0.00330104
0.00324648
0.0031796
0.00310533
0.00302559
0.00294031
0.00285048
0.00275849
0.00266664
0.00257595
0.00316821
0.00320149
0.00325347
0.00330008
0.0033266
0.00334259
0.00335142
0.00334478
0.00332191
0.00328789
0.00324295
0.00318502
0.0031159
0.00303959
0.00295825
0.00287244
0.00278314
0.00269224
0.00260165
0.00251244
0.00317035
0.00319859
0.00324228
0.00328163
0.00330338
0.00331358
0.00331544
0.00330305
0.00327529
0.00323604
0.00318632
0.00312512
0.00305386
0.0029758
0.00289317
0.00280694
0.00271811
0.00262825
0.00253894
0.00245122
0.0031713
0.00319491
0.003231
0.00326326
0.00327998
0.00328461
0.00327992
0.00326189
0.00322936
0.00318533
0.00313124
0.00306691
0.00299362
0.00291405
0.00283037
0.00274382
0.00265543
0.00256656
0.00247854
0.0023923
0.00317114
0.0031905
0.00321962
0.00324501
0.00325656
0.00325577
0.00324494
0.00322143
0.00318429
0.00313585
0.00307778
0.00301051
0.00293529
0.0028544
0.00276989
0.00268312
0.00259517
0.00250724
0.00242046
0.00233567
0.00316997
0.0031854
0.00320784
0.00322693
0.00323324
0.00322719
0.0032106
0.00318184
0.00314026
0.00308773
0.00302603
0.00295603
0.00287901
0.00279695
0.00271178
0.00262489
0.00253738
0.00245035
0.00236477
0.00228138
0.00316787
0.00317971
0.00319626
0.00320909
0.00321015
0.00319901
0.003177
0.00314326
0.00309742
0.00304111
0.00297611
0.00290359
0.00282489
0.0027418
0.0026561
0.00256917
0.00248212
0.00239594
0.0023115
0.00222945
0.00316452
0.00317348
0.00318463
0.00319154
0.00318745
0.00317137
0.00314428
0.00310582
0.00305595
0.00299613
0.00292812
0.0028533
0.00277306
0.00268905
0.00260292
0.00251602
0.00242943
0.00234407
0.00226072
0.00217994
0.00316095
0.00316684
0.003173
0.00317437
0.00316525
0.00314442
0.00311257
0.00306967
0.003016
0.00295293
0.00288219
0.00280528
0.00272363
0.00263881
0.00255235
0.00246553
0.0023794
0.00229482
0.00221249
0.00213291
0.0031568
0.00315959
0.00316145
0.00315763
0.00314369
0.00311832
0.00308201
0.00303499
0.00297776
0.00291168
0.00283845
0.00275965
0.00267673
0.00259119
0.00250446
0.00241776
0.0023321
0.00224826
0.00216689
0.00208843
0.00315218
0.00315246
0.00315009
0.00314145
0.00312292
0.00309324
0.00305276
0.00300192
0.00294139
0.00287254
0.00279705
0.00271654
0.00263249
0.00254632
0.00245938
0.00237283
0.00228761
0.00220448
0.002124
0.00204658
0.00314724
0.00314524
0.00313902
0.00312593
0.00310308
0.00306934
0.00302501
0.00297064
0.00290707
0.00283569
0.00275816
0.00267612
0.00259105
0.00250433
0.00241722
0.00233084
0.00224606
0.00216358
0.00208393
0.00200746
0.00314212
0.00313804
0.00312835
0.0031112
0.00308432
0.00304681
0.00299893
0.00294133
0.00287499
0.0028013
0.00272194
0.00263854
0.00255256
0.00246535
0.00237813
0.00229191
0.00220754
0.00212568
0.00204679
0.00197119
0.00313696
0.00313101
0.00311821
0.00309738
0.00306682
0.00302583
0.00297471
0.00291421
0.00284535
0.00276959
0.00268859
0.00260396
0.00251719
0.00242956
0.00234224
0.00225619
0.00217221
0.00209091
0.00201271
0.00193789
0.00313192
0.00312431
0.00310876
0.00308465
0.00305074
0.00300659
0.00295258
0.00288947
0.00281837
0.00274076
0.0026583
0.00257261
0.00248514
0.00239714
0.00230973
0.00222383
0.00214021
0.00205941
0.00198183
0.00190772
0.00312714
0.00311809
0.00310015
0.00307315
0.00303628
0.00298932
0.00293273
0.00286733
0.00279427
0.00271504
0.0026313
0.00254468
0.00245661
0.0023683
0.00228081
0.00219503
0.00211169
0.00203134
0.0019543
0.00188082
0.00312279
0.00311252
0.00309256
0.00306309
0.00302365
0.00297427
0.00291547
0.00284809
0.00277332
0.00269267
0.00260783
0.00252041
0.00243182
0.00234324
0.00225568
0.00217001
0.00208689
0.00200685
0.00193024
0.00185727
0.00311905
0.00310776
0.00308614
0.00305465
0.00301309
0.0029617
0.00290108
0.00283207
0.0027559
0.00267407
0.00258832
0.00250023
0.00241119
0.00232237
0.00223475
0.00214915
0.0020662
0.00198635
0.00190992
0.00183712
0.00311607
0.00310397
0.00308103
0.00304796
0.00300476
0.00295183
0.00288981
0.00281958
0.00274234
0.00265965
0.00257322
0.00248465
0.00239528
0.00230626
0.00221857
0.00213302
0.00205024
0.0019707
0.00189469
0.00182241
0.00311385
0.00310108
0.00307714
0.00304276
0.00299818
0.0029439
0.00288064
0.00280927
0.00273102
0.00264747
0.00256036
0.00247126
0.00238151
0.00229223
0.00220436
0.00211868
0.00203579
0.00195616
0.00188009
0.00180773
0.022955
0.0147584
0.00614772
4.62376e-05
-0.00245838
-0.00235494
-0.00180492
-0.00162037
-0.00164195
-0.00184376
-0.00202838
-0.00191244
-0.00176869
-0.00187369
-0.00198339
-0.00192153
-0.00187344
-0.00196491
-0.00211423
-0.00225507
-0.00240771
-0.0025925
-0.0028013
-0.00302454
-0.00326086
-0.00351045
-0.00377243
-0.00404596
-0.00433072
-0.00462659
-0.00493351
-0.00525145
-0.00558049
-0.00592073
-0.00627233
-0.00663547
-0.00701038
-0.0073973
-0.00779654
-0.00820838
-0.00863314
-0.00907119
-0.00952287
-0.00998862
-0.0104687
-0.0109639
-0.0114739
-0.0120004
-0.0125417
-0.0131022
-0.0136754
-0.0142728
-0.0148786
-0.0155134
-0.0161559
-0.0168176
-0.0175054
-0.0181743
-0.0188627
-0.0195317
0.0220104
0.014633
0.00618732
0.000129259
-0.00240347
-0.00232915
-0.00178993
-0.00161079
-0.00163571
-0.0018398
-0.00202654
-0.00191156
-0.00176797
-0.00187327
-0.00198333
-0.00192156
-0.00187345
-0.00196493
-0.00211427
-0.0022551
-0.00240772
-0.00259251
-0.0028013
-0.00302454
-0.00326086
-0.00351045
-0.00377243
-0.00404596
-0.00433072
-0.00462659
-0.00493351
-0.00525145
-0.00558049
-0.00592073
-0.00627233
-0.00663547
-0.00701038
-0.0073973
-0.00779654
-0.00820838
-0.00863314
-0.00907119
-0.00952287
-0.00998862
-0.0104687
-0.0109639
-0.0114739
-0.0120004
-0.0125417
-0.0131022
-0.0136754
-0.0142728
-0.0148786
-0.0155134
-0.0161559
-0.0168176
-0.0175054
-0.0181743
-0.0188627
-0.0195317
0.0212967
0.0145448
0.00628526
0.000291478
-0.00230362
-0.00229207
-0.00177305
-0.00159811
-0.00162489
-0.00183119
-0.00202064
-0.00190812
-0.00176609
-0.00187224
-0.00198271
-0.00192116
-0.00187329
-0.00196493
-0.0021143
-0.0022551
-0.00240772
-0.00259251
-0.00280131
-0.00302455
-0.00326086
-0.00351045
-0.00377243
-0.00404596
-0.00433072
-0.00462659
-0.00493351
-0.00525145
-0.00558049
-0.00592073
-0.00627233
-0.00663547
-0.00701038
-0.0073973
-0.00779654
-0.00820838
-0.00863314
-0.00907119
-0.00952287
-0.00998862
-0.0104687
-0.0109639
-0.0114739
-0.0120004
-0.0125417
-0.0131022
-0.0136754
-0.0142728
-0.0148786
-0.0155134
-0.0161559
-0.0168176
-0.0175054
-0.0181743
-0.0188627
-0.0195318
0.0206264
0.0144361
0.00640014
0.000490017
-0.00216964
-0.00223941
-0.00174727
-0.0015772
-0.00160595
-0.00181441
-0.00200741
-0.00189975
-0.0017616
-0.0018694
-0.00198048
-0.00191973
-0.00187276
-0.00196485
-0.0021143
-0.00225507
-0.00240771
-0.00259253
-0.00280132
-0.00302455
-0.00326086
-0.00351045
-0.00377243
-0.00404596
-0.00433072
-0.00462659
-0.00493351
-0.00525145
-0.00558049
-0.00592073
-0.00627233
-0.00663547
-0.00701038
-0.0073973
-0.00779654
-0.00820838
-0.00863314
-0.00907119
-0.00952287
-0.00998862
-0.0104687
-0.0109639
-0.0114739
-0.0120004
-0.0125417
-0.0131022
-0.0136754
-0.0142728
-0.0148786
-0.0155134
-0.0161559
-0.0168176
-0.0175054
-0.0181743
-0.0188627
-0.0195318
0.019959
0.0143018
0.00651806
0.000697344
-0.0020246
-0.00218
-0.00171696
-0.00155065
-0.00158026
-0.00179004
-0.00198682
-0.00188614
-0.00175409
-0.0018644
-0.00197632
-0.00191697
-0.00187158
-0.00196448
-0.00211411
-0.00225495
-0.00240769
-0.00259255
-0.00280134
-0.00302456
-0.00326086
-0.00351045
-0.00377243
-0.00404596
-0.00433072
-0.00462659
-0.0049335
-0.00525145
-0.00558049
-0.00592073
-0.00627232
-0.00663547
-0.00701038
-0.0073973
-0.00779654
-0.00820838
-0.00863314
-0.00907119
-0.00952287
-0.00998862
-0.0104687
-0.0109639
-0.0114739
-0.0120004
-0.0125417
-0.0131022
-0.0136754
-0.0142728
-0.0148786
-0.0155134
-0.0161559
-0.0168176
-0.0175054
-0.0181743
-0.0188628
-0.0195319
0.0193026
0.0141498
0.00663567
0.000905804
-0.00187524
-0.00211783
-0.00168553
-0.00152197
-0.00155122
-0.0017615
-0.00196188
-0.00186909
-0.00174436
-0.00185763
-0.00197054
-0.00191303
-0.00186976
-0.00196378
-0.00211371
-0.0022547
-0.00240761
-0.00259256
-0.00280136
-0.00302457
-0.00326087
-0.00351046
-0.00377243
-0.00404595
-0.00433072
-0.00462659
-0.0049335
-0.00525145
-0.00558049
-0.00592073
-0.00627232
-0.00663547
-0.00701038
-0.0073973
-0.00779654
-0.00820838
-0.00863314
-0.00907119
-0.00952287
-0.00998862
-0.0104687
-0.0109639
-0.0114739
-0.0120004
-0.0125417
-0.0131022
-0.0136754
-0.0142728
-0.0148786
-0.0155134
-0.0161559
-0.0168176
-0.0175054
-0.0181743
-0.0188628
-0.019532
0.0186654
0.0139819
0.00675086
0.0011144
-0.0017225
-0.00205352
-0.00165389
-0.00149251
-0.00152049
-0.0017309
-0.00193483
-0.00185032
-0.00173342
-0.00184988
-0.00196383
-0.00190836
-0.00186748
-0.0019628
-0.00211314
-0.00225435
-0.00240748
-0.00259255
-0.00280138
-0.00302457
-0.00326087
-0.00351045
-0.00377242
-0.00404595
-0.00433071
-0.00462659
-0.0049335
-0.00525145
-0.00558049
-0.00592073
-0.00627232
-0.00663547
-0.00701038
-0.0073973
-0.00779654
-0.00820838
-0.00863314
-0.00907119
-0.00952287
-0.00998862
-0.0104687
-0.0109639
-0.0114739
-0.0120004
-0.0125417
-0.0131022
-0.0136754
-0.0142728
-0.0148786
-0.0155134
-0.0161559
-0.0168176
-0.0175054
-0.0181743
-0.0188629
-0.0195322
0.0180494
0.0137986
0.00686288
0.00132292
-0.00156671
-0.0019871
-0.00162219
-0.00146274
-0.00148872
-0.00169909
-0.00190665
-0.00183062
-0.00172181
-0.00184162
-0.00195664
-0.00190327
-0.00186492
-0.00196165
-0.00211245
-0.00225392
-0.00240731
-0.00259252
-0.00280138
-0.00302457
-0.00326086
-0.00351045
-0.00377242
-0.00404594
-0.00433071
-0.00462658
-0.0049335
-0.00525144
-0.00558048
-0.00592073
-0.00627232
-0.00663547
-0.00701038
-0.0073973
-0.00779654
-0.00820838
-0.00863314
-0.00907119
-0.00952287
-0.00998862
-0.0104687
-0.0109639
-0.0114739
-0.0120004
-0.0125417
-0.0131022
-0.0136754
-0.0142728
-0.0148786
-0.0155134
-0.0161559
-0.0168176
-0.0175054
-0.0181744
-0.018863
-0.0195323
0.0174564
0.013601
0.00697005
0.00153052
-0.00140802
-0.00191834
-0.00159042
-0.00143295
-0.0014562
-0.00166632
-0.00187762
-0.00181024
-0.00170974
-0.00183305
-0.00194917
-0.00189791
-0.00186215
-0.00196038
-0.00211168
-0.00225343
-0.00240709
-0.00259247
-0.00280137
-0.00302457
-0.00326086
-0.00351044
-0.00377241
-0.00404594
-0.0043307
-0.00462658
-0.00493349
-0.00525144
-0.00558048
-0.00592072
-0.00627232
-0.00663547
-0.00701037
-0.0073973
-0.00779654
-0.00820837
-0.00863314
-0.00907119
-0.00952287
-0.00998862
-0.0104687
-0.0109639
-0.0114739
-0.0120004
-0.0125417
-0.0131022
-0.0136754
-0.0142728
-0.0148786
-0.0155134
-0.0161559
-0.0168177
-0.0175054
-0.0181744
-0.0188631
-0.0195325
0.0168873
0.0133897
0.00707034
0.00173678
-0.00124625
-0.00184696
-0.00155857
-0.00140333
-0.00142305
-0.00163264
-0.00184777
-0.00178922
-0.00169726
-0.00182423
-0.00194148
-0.00189232
-0.0018592
-0.00195901
-0.00211085
-0.0022529
-0.00240685
-0.0025924
-0.00280135
-0.00302455
-0.00326084
-0.00351043
-0.0037724
-0.00404592
-0.00433069
-0.00462657
-0.00493348
-0.00525143
-0.00558048
-0.00592072
-0.00627232
-0.00663546
-0.00701037
-0.0073973
-0.00779653
-0.00820837
-0.00863314
-0.00907119
-0.00952287
-0.00998862
-0.0104687
-0.0109639
-0.0114739
-0.0120004
-0.0125417
-0.0131022
-0.0136754
-0.0142728
-0.0148786
-0.0155134
-0.0161559
-0.0168177
-0.0175054
-0.0181744
-0.0188632
-0.0195326
0.0163423
0.0131652
0.00716239
0.00194146
-0.00108127
-0.00177267
-0.00152656
-0.001374
-0.00138936
-0.00159802
-0.00181706
-0.00176754
-0.00168436
-0.00181516
-0.00193358
-0.0018865
-0.00185608
-0.00195753
-0.00210996
-0.00225232
-0.00240657
-0.00259231
-0.00280132
-0.00302453
-0.00326082
-0.00351041
-0.00377238
-0.00404591
-0.00433068
-0.00462656
-0.00493348
-0.00525143
-0.00558047
-0.00592072
-0.00627231
-0.00663546
-0.00701037
-0.0073973
-0.00779653
-0.00820837
-0.00863314