/*--------------------------------*- C++ -*----------------------------------*\
| =========                 |                                                 |
| \\      /  F ield         | OpenFOAM: The Open Source CFD Toolbox           |
|  \\    /   O peration     | Version:  v2012                                 |
|   \\  /    A nd           | Website:  www.openfoam.com                      |
|    \\/     M anipulation  |                                                 |
\*---------------------------------------------------------------------------*/
FoamFile
{
    version     2.0;
    format      ascii;
    class       surfaceScalarField;
    location    "0.1";
    object      phi;
}
// * * * * * * * * * * * * * * * * * * * * * * * * * * * * * * * * * * * * * //

dimensions      [0 3 -1 0 0 0 0];
oriented        oriented;


internalField   nonuniform List<scalar> 
15820
(
1.60057e-06
-8.43918e-07
1.55511e-06
1.06005e-06
1.57667e-06
-2.33245e-07
1.57846e-06
-6.4184e-07
1.56781e-06
5.28867e-07
1.55138e-06
2.18592e-07
1.57124e-06
-3.16871e-07
1.57016e-06
-4.82751e-07
1.56961e-06
2.10705e-07
1.55079e-06
2.40488e-07
1.55383e-06
1.66604e-07
1.5508e-06
-2.5642e-07
1.56514e-06
-1.78229e-07
1.55368e-06
-2.57307e-07
1.5562e-06
4.10556e-08
1.55366e-06
1.92908e-07
1.54487e-06
1.6075e-07
1.53701e-06
-3.99066e-08
1.53636e-06
9.863e-08
-1.2892e-07
1.50785e-06
1.64759e-06
-8.77075e-07
1.61304e-06
1.0946e-06
1.63071e-06
-2.50922e-07
1.62599e-06
-6.37118e-07
1.61326e-06
5.41598e-07
1.60545e-06
2.264e-07
1.61832e-06
-3.29737e-07
1.61781e-06
-4.8224e-07
1.61223e-06
2.16285e-07
1.60552e-06
2.47199e-07
1.59974e-06
1.72375e-07
1.60335e-06
-2.60023e-07
1.60848e-06
-1.83359e-07
1.60507e-06
-2.53897e-07
1.59582e-06
5.03046e-08
1.60729e-06
1.8144e-07
1.58821e-06
1.79828e-07
1.59227e-06
-4.39658e-08
1.57947e-06
1.1143e-07
-1.19913e-07
1.57046e-06
1.68976e-06
-9.028e-07
1.67452e-06
1.10985e-06
1.68063e-06
-2.57039e-07
1.67624e-06
-6.32726e-07
1.66438e-06
5.53465e-07
1.6642e-06
2.26578e-07
1.66624e-06
-3.31779e-07
1.66703e-06
-4.83033e-07
1.66012e-06
2.23194e-07
1.66165e-06
2.45672e-07
1.65425e-06
1.7978e-07
1.65847e-06
-2.64247e-07
1.65801e-06
-1.82903e-07
1.65621e-06
-2.5209e-07
1.64721e-06
5.93053e-08
1.65501e-06
1.73634e-07
1.64667e-06
1.88172e-07
1.64532e-06
-4.26169e-08
1.64218e-06
1.14569e-07
-1.05055e-07
1.62732e-06
1.73057e-06
-9.18214e-07
1.73182e-06
1.1086e-06
1.7277e-06
-2.52918e-07
1.72443e-06
-6.29449e-07
1.71972e-06
5.58175e-07
1.72241e-06
2.23884e-07
1.71549e-06
-3.24859e-07
1.71505e-06
-4.8259e-07
1.71343e-06
2.24806e-07
1.71785e-06
2.41254e-07
1.71311e-06
1.84524e-07
1.7128e-06
-2.63944e-07
1.71005e-06
-1.80152e-07
1.70657e-06
-2.48604e-07
1.70198e-06
6.3895e-08
1.70777e-06
1.6784e-07
1.70543e-06
1.90509e-07
1.70172e-06
-3.89061e-08
1.70074e-06
1.15549e-07
-8.81693e-08
1.68386e-06
1.77306e-06
-9.23424e-07
1.78481e-06
1.09685e-06
1.77526e-06
-2.43368e-07
1.77146e-06
-6.25643e-07
1.77532e-06
5.54313e-07
1.77876e-06
2.20436e-07
1.76681e-06
-3.12901e-07
1.76343e-06
-4.79215e-07
1.76769e-06
2.20553e-07
1.77402e-06
2.3492e-07
1.77168e-06
1.86861e-07
1.76702e-06
-2.59284e-07
1.7621e-06
-1.75232e-07
1.75734e-06
-2.43839e-07
1.75593e-06
6.53073e-08
1.76261e-06
1.61158e-07
1.76305e-06
1.90067e-07
1.75768e-06
-3.35327e-08
1.75759e-06
1.15635e-07
-7.04507e-08
1.73987e-06
1.81939e-06
-9.2065e-07
1.83636e-06
1.07988e-06
1.82575e-06
-2.32763e-07
1.8199e-06
-6.1979e-07
1.82951e-06
5.44705e-07
1.83409e-06
2.15852e-07
1.82044e-06
-2.99244e-07
1.81395e-06
-4.72728e-07
1.82113e-06
2.13372e-07
1.8294e-06
2.26654e-07
1.82906e-06
1.87192e-07
1.82189e-06
-2.52106e-07
1.81508e-06
-1.68429e-07
1.8092e-06
-2.3796e-07
1.80971e-06
6.47981e-08
1.81714e-06
1.53733e-07
1.81993e-06
1.87274e-07
1.81293e-06
-2.65373e-08
1.8138e-06
1.14765e-07
-5.26502e-08
1.796e-06
1.87017e-06
-9.12672e-07
1.88927e-06
1.06077e-06
1.87965e-06
-2.23142e-07
1.87149e-06
-6.11629e-07
1.88344e-06
5.32757e-07
1.88969e-06
2.096e-07
1.87625e-06
-2.85808e-07
1.86727e-06
-4.63744e-07
1.87481e-06
2.05827e-07
1.88444e-06
2.17026e-07
1.88609e-06
1.85541e-07
1.87794e-06
-2.43948e-07
1.87002e-06
-1.60518e-07
1.86288e-06
-2.30814e-07
1.86443e-06
6.32442e-08
1.87169e-06
1.46473e-07
1.8766e-06
1.82367e-07
1.86842e-06
-1.83583e-08
1.87013e-06
1.13051e-07
-3.54524e-08
1.85294e-06
1.92491e-06
-9.01732e-07
1.94488e-06
1.0408e-06
1.9364e-06
-2.14662e-07
1.92657e-06
-6.01795e-07
1.93889e-06
5.20438e-07
1.94661e-06
2.01883e-07
1.93404e-06
-2.73236e-07
1.92338e-06
-4.53089e-07
1.93024e-06
1.98966e-07
1.94046e-06
2.06809e-07
1.94383e-06
1.8217e-07
1.93547e-06
-2.35587e-07
1.92725e-06
-1.52294e-07
1.91877e-06
-2.22342e-07
1.92093e-06
6.10867e-08
1.92735e-06
1.40051e-07
1.93395e-06
1.75775e-07
1.92506e-06
-9.47238e-09
1.92741e-06
1.10703e-07
-1.92848e-08
1.91124e-06
1.98281e-06
-8.89218e-07
2.00334e-06
1.02026e-06
1.99545e-06
-2.06768e-07
1.98475e-06
-5.91103e-07
1.9968e-06
5.0839e-07
2.00542e-06
1.93263e-07
1.99364e-06
-2.61457e-07
1.98202e-06
-4.41467e-07
1.9882e-06
1.92787e-07
1.99843e-06
1.96573e-07
2.00304e-06
1.77561e-07
1.99463e-06
-2.27172e-07
1.98668e-06
-1.44351e-07
1.97697e-06
-2.1263e-07
1.97967e-06
5.8392e-08
1.98495e-06
1.34764e-07
1.99273e-06
1.67998e-07
1.98348e-06
-2.26052e-10
1.98621e-06
1.0798e-07
-4.33751e-09
1.97126e-06
2.04324e-06
-8.75834e-07
2.06432e-06
9.9918e-07
2.05648e-06
-1.98924e-07
2.04553e-06
-5.80154e-07
2.05726e-06
4.96665e-07
2.0663e-06
1.8422e-07
2.05505e-06
-2.50211e-07
2.04291e-06
-4.29323e-07
2.04875e-06
1.86945e-07
2.0587e-06
1.86624e-07
2.06411e-06
1.72147e-07
2.0555e-06
-2.18554e-07
2.04819e-06
-1.37045e-07
2.03741e-06
-2.01847e-07
2.04071e-06
5.50858e-08
2.04485e-06
1.30632e-07
2.05334e-06
1.59504e-07
2.04399e-06
9.12425e-09
2.04682e-06
1.05154e-07
9.31303e-09
2.03317e-06
2.10585e-06
-8.61881e-07
2.12754e-06
9.77494e-07
2.11944e-06
-1.9082e-07
2.10856e-06
-5.69276e-07
2.12003e-06
4.85194e-07
2.12922e-06
1.75031e-07
2.11832e-06
-2.39314e-07
2.10587e-06
-4.16873e-07
2.11168e-06
1.81133e-07
2.1212e-06
1.77106e-07
2.12718e-06
1.66171e-07
2.11816e-06
-2.09538e-07
2.11168e-06
-1.30561e-07
2.1e-06
-1.90164e-07
2.10395e-06
5.11317e-08
2.10706e-06
1.27526e-07
2.11587e-06
1.50685e-07
2.10665e-06
1.8353e-08
2.10933e-06
1.02465e-07
2.16332e-08
2.09701e-06
2.17052e-06
-8.47467e-07
2.19283e-06
9.55178e-07
2.18433e-06
-1.82318e-07
2.17368e-06
-5.58623e-07
2.18494e-06
4.73929e-07
2.19415e-06
1.65826e-07
2.18353e-06
-2.28691e-07
2.17085e-06
-4.04194e-07
2.17681e-06
1.7517e-07
2.18582e-06
1.68101e-07
2.19227e-06
1.59719e-07
2.18272e-06
-1.99988e-07
2.17712e-06
-1.24963e-07
2.16469e-06
-1.7774e-07
2.16924e-06
4.65886e-08
2.17151e-06
1.2525e-07
2.18033e-06
1.41874e-07
2.17145e-06
2.72265e-08
2.17382e-06
1.00098e-07
3.2617e-08
2.16283e-06
2.23722e-06
-8.32626e-07
2.26017e-06
9.32226e-07
2.25122e-06
-1.73371e-07
2.24086e-06
-5.48256e-07
2.25193e-06
4.62854e-07
2.26109e-06
1.56665e-07
2.25074e-06
-2.18337e-07
2.23784e-06
-3.91296e-07
2.24405e-06
1.68961e-07
2.25248e-06
1.59672e-07
2.2594e-06
1.52801e-07
2.24925e-06
-1.8984e-07
2.24453e-06
-1.20245e-07
2.23152e-06
-1.64731e-07
2.23651e-06
4.16023e-08
2.23819e-06
1.23572e-07
2.2467e-06
1.3336e-07
2.23841e-06
3.55167e-08
2.24033e-06
9.81819e-08
4.22881e-08
2.23065e-06
2.30599e-06
-8.17369e-07
2.32958e-06
9.08639e-07
2.32018e-06
-1.63971e-07
2.31012e-06
-5.38197e-07
2.32101e-06
4.51966e-07
2.33009e-06
1.47586e-07
2.32002e-06
-2.08275e-07
2.30689e-06
-3.78164e-07
2.3134e-06
1.6245e-07
2.3212e-06
1.51877e-07
2.3286e-06
1.45404e-07
2.31784e-06
-1.79089e-07
2.31395e-06
-1.16346e-07
2.30053e-06
-1.51312e-07
2.30575e-06
3.63786e-08
2.30708e-06
1.22241e-07
2.31503e-06
1.25407e-07
2.30753e-06
4.30249e-08
2.30893e-06
9.67779e-08
5.07061e-08
2.30051e-06
2.37689e-06
-8.017e-07
2.40111e-06
8.84426e-07
2.39126e-06
-1.54122e-07
2.38151e-06
-5.28455e-07
2.39222e-06
4.41265e-07
2.40118e-06
1.3862e-07
2.39145e-06
-1.98546e-07
2.37806e-06
-3.64775e-07
2.38491e-06
1.55597e-07
2.39203e-06
1.44765e-07
2.39991e-06
1.37523e-07
2.38859e-06
-1.67775e-07
2.38541e-06
-1.13163e-07
2.37178e-06
-1.37686e-07
2.377e-06
3.11627e-08
2.37824e-06
1.20999e-07
2.3854e-06
1.18248e-07
2.37883e-06
4.95984e-08
2.37971e-06
9.58897e-08
5.79622e-08
2.37246e-06
2.44999e-06
-7.85621e-07
2.47481e-06
8.59599e-07
2.46453e-06
-1.43836e-07
2.4551e-06
-5.1903e-07
2.46562e-06
4.30746e-07
2.47444e-06
1.29804e-07
2.46509e-06
-1.89192e-07
2.45141e-06
-3.51101e-07
2.45864e-06
1.48369e-07
2.46503e-06
1.38373e-07
2.47338e-06
1.29178e-07
2.46158e-06
-1.55978e-07
2.45897e-06
-1.1055e-07
2.44537e-06
-1.24088e-07
2.45031e-06
2.62233e-08
2.45171e-06
1.19595e-07
2.45788e-06
1.12076e-07
2.45233e-06
5.51483e-08
2.45276e-06
9.54673e-08
6.41689e-08
2.44655e-06
2.52535e-06
-7.69137e-07
2.55077e-06
8.34176e-07
2.54006e-06
-1.33129e-07
2.53095e-06
-5.09919e-07
2.5413e-06
4.20401e-07
2.54992e-06
1.21178e-07
2.541e-06
-1.80263e-07
2.52701e-06
-3.37118e-07
2.53464e-06
1.40744e-07
2.54029e-06
1.32716e-07
2.54905e-06
1.2042e-07
2.53689e-06
-1.43817e-07
2.53467e-06
-1.08328e-07
2.52136e-06
-1.10775e-07
2.52575e-06
2.18338e-08
2.52753e-06
1.17809e-07
2.5326e-06
1.07007e-07
2.52808e-06
5.96725e-08
2.52813e-06
9.54176e-08
6.94474e-08
2.52285e-06
2.60304e-06
-7.52254e-07
2.62904e-06
8.08175e-07
2.61793e-06
-1.22024e-07
2.60913e-06
-5.01112e-07
2.61931e-06
4.10214e-07
2.6277e-06
1.12787e-07
2.61925e-06
-1.71809e-07
2.60494e-06
-3.22802e-07
2.61297e-06
1.3271e-07
2.6179e-06
1.27788e-07
2.62699e-06
1.1133e-07
2.61462e-06
-1.31446e-07
2.61257e-06
-1.06286e-07
2.59981e-06
-9.80153e-08
2.6034e-06
1.82504e-08
2.60574e-06
1.15471e-07
2.6097e-06
1.03046e-07
2.6061e-06
6.32703e-08
2.60589e-06
9.56236e-08
7.39179e-08
2.60142e-06
2.68314e-06
-7.34979e-07
2.70969e-06
7.81619e-07
2.69821e-06
-1.10544e-07
2.6897e-06
-4.92595e-07
2.69974e-06
4.00165e-07
2.70785e-06
1.04682e-07
2.69992e-06
-1.63883e-07
2.68526e-06
-3.08137e-07
2.69369e-06
1.24273e-07
2.69793e-06
1.23555e-07
2.70724e-06
1.02018e-07
2.69484e-06
-1.19046e-07
2.69275e-06
-1.04195e-07
2.6808e-06
-8.60659e-08
2.68337e-06
1.56819e-08
2.68635e-06
1.1249e-07
2.6893e-06
1.00096e-07
2.68646e-06
6.61033e-08
2.68612e-06
9.59731e-08
7.76843e-08
2.68235e-06
2.76572e-06
-7.17321e-07
2.7928e-06
7.54538e-07
2.78097e-06
-9.87185e-08
2.77273e-06
-4.84349e-07
2.78267e-06
3.90227e-07
2.79043e-06
9.692e-08
2.78308e-06
-1.56535e-07
2.76806e-06
-2.93113e-07
2.77688e-06
1.15454e-07
2.78047e-06
1.19957e-07
2.78987e-06
9.26234e-08
2.77764e-06
-1.06821e-07
2.77527e-06
-1.01825e-07
2.76436e-06
-7.51564e-08
2.76577e-06
1.42745e-08
2.76938e-06
1.08876e-07
2.77151e-06
9.79702e-08
2.76925e-06
6.83599e-08
2.76885e-06
9.63741e-08
8.08337e-08
2.7657e-06
2.85086e-06
-6.99292e-07
2.87844e-06
7.2696e-07
2.8663e-06
-8.6583e-08
2.8583e-06
-4.76348e-07
2.86816e-06
3.80367e-07
2.87552e-06
8.95599e-08
2.8688e-06
-1.49815e-07
2.85342e-06
-2.77731e-07
2.86258e-06
1.06294e-07
2.86563e-06
1.16908e-07
2.87494e-06
8.33096e-08
2.8631e-06
-9.49845e-08
2.86023e-06
-9.89511e-08
2.85054e-06
-6.54658e-08
2.85075e-06
1.40679e-08
2.85487e-06
1.04757e-07
2.85642e-06
9.64165e-08
2.85456e-06
7.0223e-08
2.85417e-06
9.67567e-08
8.34449e-08
2.85156e-06
2.93864e-06
-6.80905e-07
2.96668e-06
6.98923e-07
2.95427e-06
-7.41762e-08
2.94648e-06
-4.68563e-07
2.9563e-06
3.70547e-07
2.9632e-06
8.26647e-08
2.95715e-06
-1.43768e-07
2.94143e-06
-2.62006e-07
2.95086e-06
9.68577e-08
2.95348e-06
1.14292e-07
2.96253e-06
7.42627e-08
2.9513e-06
-8.37602e-08
2.94773e-06
-9.53772e-08
2.93935e-06
-5.70885e-08
2.93845e-06
1.49736e-08
2.94285e-06
1.00357e-07
2.94408e-06
9.5177e-08
2.94247e-06
7.18329e-08
2.94216e-06
9.70749e-08
8.55939e-08
2.94001e-06
3.02914e-06
-6.62175e-07
3.0576e-06
6.70466e-07
3.04497e-06
-6.15425e-08
3.03736e-06
-4.60956e-07
3.04718e-06
3.60721e-07
3.05355e-06
7.62987e-08
3.04822e-06
-1.38434e-07
3.03218e-06
-2.45966e-07
3.04181e-06
8.72293e-08
3.04412e-06
1.11974e-07
3.05271e-06
6.56808e-08
3.0423e-06
-7.33537e-08
3.03788e-06
-9.0961e-08
3.0308e-06
-5.00099e-08
3.029e-06
1.67787e-08
3.03341e-06
9.59468e-08
3.03455e-06
9.40403e-08
3.03312e-06
7.32576e-08
3.03288e-06
9.73121e-08
8.73574e-08
3.03112e-06
3.12246e-06
-6.43119e-07
3.15129e-06
6.41635e-07
3.13848e-06
-4.87316e-08
3.13101e-06
-4.53486e-07
3.14089e-06
3.50841e-07
3.14666e-06
7.05268e-08
3.14207e-06
-1.33844e-07
3.12576e-06
-2.29657e-07
3.13547e-06
7.75202e-08
3.13765e-06
1.09791e-07
3.14557e-06
5.77651e-08
3.13615e-06
-6.39403e-08
3.13083e-06
-8.56393e-08
3.12492e-06
-4.41013e-08
3.12251e-06
1.91867e-08
3.12667e-06
9.17885e-08
3.12784e-06
9.28726e-08
3.12659e-06
7.45038e-08
3.12645e-06
9.74593e-08
8.88152e-08
3.12499e-06
3.21866e-06
-6.23758e-07
3.24782e-06
6.12479e-07
3.23489e-06
-3.57986e-08
3.22751e-06
-4.46104e-07
3.23749e-06
3.40853e-07
3.24261e-06
6.54109e-08
3.23878e-06
-1.30015e-07
3.22227e-06
-2.13147e-07
3.23193e-06
6.78622e-08
3.23415e-06
1.0757e-07
3.24121e-06
5.07067e-08
3.23291e-06
-5.56461e-08
3.22672e-06
-7.94462e-08
3.22176e-06
-3.91355e-08
3.21907e-06
2.18678e-08
3.22277e-06
8.80915e-08
3.22402e-06
9.16226e-08
3.22298e-06
7.5543e-08
3.22294e-06
9.75038e-08
9.00449e-08
3.22171e-06
3.31786e-06
-6.04113e-07
3.34729e-06
5.83052e-07
3.33429e-06
-2.2804e-08
3.32695e-06
-4.38757e-07
3.3371e-06
3.30699e-07
3.3415e-06
6.10094e-08
3.33844e-06
-1.26953e-07
3.32181e-06
-1.96517e-07
3.33127e-06
5.84045e-08
3.33371e-06
1.05129e-07
3.33974e-06
4.46794e-08
3.33263e-06
-4.85392e-08
3.3257e-06
-7.25116e-08
3.32138e-06
-3.48241e-08
3.31872e-06
2.45315e-08
3.32186e-06
8.49536e-08
3.32315e-06
9.03262e-08
3.32236e-06
7.63375e-08
3.32245e-06
9.74173e-08
9.11122e-08
3.32138e-06
3.42014e-06
-5.84211e-07
3.44978e-06
5.53416e-07
3.43679e-06
-9.81378e-09
3.42941e-06
-4.31385e-07
3.43979e-06
3.2032e-07
3.44343e-06
5.73741e-08
3.44112e-06
-1.24649e-07
3.42448e-06
-1.79873e-07
3.43357e-06
4.93131e-08
3.43641e-06
1.02288e-07
3.44128e-06
3.98145e-08
3.43534e-06
-4.26013e-08
3.42788e-06
-6.50492e-08
3.42391e-06
-3.08614e-08
3.42149e-06
2.69539e-08
3.42407e-06
8.23741e-08
3.42533e-06
8.9067e-08
3.4248e-06
7.6871e-08
3.42506e-06
9.71542e-08
9.20631e-08
3.42411e-06
3.5256e-06
-5.64079e-07
3.55538e-06
5.23635e-07
3.54246e-06
3.10069e-09
3.535e-06
-4.23925e-07
3.54567e-06
3.09656e-07
3.54849e-06
5.45484e-08
3.54692e-06
-1.23075e-07
3.53038e-06
-1.63337e-07
3.53893e-06
4.07643e-08
3.54234e-06
9.88832e-08
3.54596e-06
3.61863e-08
3.54108e-06
-3.77208e-08
3.53338e-06
-5.73444e-08
3.52947e-06
-2.69557e-08
3.52742e-06
2.90017e-08
3.52954e-06
8.02597e-08
3.53066e-06
8.79439e-08
3.53036e-06
7.71689e-08
3.53086e-06
9.66594e-08
9.29152e-08
3.53001e-06
3.63433e-06
-5.43747e-07
3.66419e-06
4.9378e-07
3.65142e-06
1.5863e-08
3.64381e-06
-4.16308e-07
3.65481e-06
2.98648e-07
3.6568e-06
5.25623e-08
3.65591e-06
-1.22182e-07
3.63962e-06
-1.47049e-07
3.64744e-06
3.29394e-08
3.65154e-06
9.47829e-08
3.65394e-06
3.3794e-08
3.64993e-06
-3.37122e-08
3.64229e-06
-4.97042e-08
3.63821e-06
-2.28728e-08
3.63656e-06
3.06492e-08
3.63836e-06
7.84561e-08
3.63928e-06
8.7024e-08
3.63914e-06
7.73059e-08
3.63992e-06
9.58834e-08
9.36527e-08
3.63918e-06
3.74644e-06
-5.2325e-07
3.7763e-06
4.63926e-07
3.76377e-06
2.83919e-08
3.75592e-06
-4.08462e-07
3.76733e-06
2.8724e-07
3.76846e-06
5.1433e-08
3.76818e-06
-1.21905e-07
3.7523e-06
-1.31164e-07
3.75922e-06
2.60143e-08
3.76411e-06
8.99e-08
3.76534e-06
3.25553e-08
3.76195e-06
-3.03222e-08
3.75467e-06
-4.24224e-08
3.75029e-06
-1.84868e-08
3.74894e-06
3.19929e-08
3.75063e-06
7.67707e-08
3.75132e-06
8.63283e-08
3.75124e-06
7.73935e-08
3.75232e-06
9.48038e-08
9.42255e-08
3.75174e-06
3.86204e-06
-5.02623e-07
3.89182e-06
4.34156e-07
3.8796e-06
4.06026e-08
3.87146e-06
-4.00314e-07
3.88331e-06
2.75385e-07
3.88358e-06
5.11605e-08
3.88384e-06
-1.22156e-07
3.86852e-06
-1.15847e-07
3.87439e-06
2.01433e-08
3.88008e-06
8.42078e-08
3.88032e-06
3.23147e-08
3.87726e-06
-2.72628e-08
3.87059e-06
-3.57467e-08
3.86588e-06
-1.37777e-08
3.86468e-06
3.31921e-08
3.86639e-06
7.50648e-08
3.86693e-06
8.57837e-08
3.86676e-06
7.75625e-08
3.86812e-06
9.34452e-08
9.45592e-08
3.86779e-06
3.98124e-06
-4.81905e-07
4.01084e-06
4.04553e-07
3.99904e-06
5.2406e-08
3.99051e-06
-3.91789e-07
4.00286e-06
2.63039e-07
4.00229e-06
5.1726e-08
4.00297e-06
-1.2283e-07
3.98839e-06
-1.01267e-07
3.99308e-06
1.54513e-08
3.99954e-06
7.77455e-08
3.999e-06
3.28524e-08
3.99599e-06
-2.42482e-08
3.99008e-06
-2.9838e-08
3.98514e-06
-8.83888e-09
3.98388e-06
3.44519e-08
3.9857e-06
7.32506e-08
3.98622e-06
8.52625e-08
3.98586e-06
7.79162e-08
3.98742e-06
9.18877e-08
9.45757e-08
3.98741e-06
4.10414e-06
-4.6114e-07
4.13348e-06
3.75208e-07
4.12218e-06
6.37113e-08
4.11321e-06
-3.82816e-07
4.12607e-06
2.50173e-07
4.12471e-06
5.30909e-08
4.12568e-06
-1.23802e-07
4.11201e-06
-8.75979e-08
4.11543e-06
1.20364e-08
4.12257e-06
7.06014e-08
4.12151e-06
3.39133e-08
4.11828e-06
-2.10173e-08
4.11321e-06
-2.47673e-08
4.10821e-06
-3.83928e-09
4.10671e-06
3.59476e-08
4.10862e-06
7.13415e-08
4.10928e-06
8.46013e-08
4.10871e-06
7.84884e-08
4.11033e-06
9.02629e-08
9.42229e-08
4.11069e-06
4.23086e-06
-4.4037e-07
4.25986e-06
3.46216e-07
4.24914e-06
7.44261e-08
4.23965e-06
-3.73326e-07
4.25305e-06
2.3677e-07
4.25095e-06
5.51951e-08
4.25208e-06
-1.24932e-07
4.23948e-06
-7.49987e-08
4.24157e-06
9.94631e-09
4.24924e-06
6.29285e-08
4.24794e-06
3.52124e-08
4.24429e-06
-1.73633e-08
4.24002e-06
-2.04941e-08
4.23519e-06
9.86497e-10
4.23333e-06
3.78052e-08
4.23523e-06
6.94419e-08
4.2362e-06
8.36384e-08
4.23546e-06
7.92268e-08
4.237e-06
8.87262e-08
9.35032e-08
4.23771e-06
4.36153e-06
-4.19643e-07
4.39007e-06
3.17673e-07
4.38004e-06
8.44581e-08
4.36997e-06
-3.63257e-07
4.38391e-06
2.22831e-07
4.38115e-06
5.79582e-08
4.38228e-06
-1.26071e-07
4.3709e-06
-6.36166e-08
4.37166e-06
9.18915e-09
4.37967e-06
5.49173e-08
4.37842e-06
3.64674e-08
4.3742e-06
-1.3147e-08
4.3706e-06
-1.68927e-08
4.36618e-06
5.40451e-09
4.36393e-06
4.00587e-08
4.36566e-06
6.77113e-08
4.36702e-06
8.22728e-08
4.36626e-06
7.99925e-08
4.36756e-06
8.74179e-08
9.24873e-08
4.36858e-06
4.49625e-06
-3.99009e-07
4.52425e-06
2.89679e-07
4.51499e-06
9.37168e-08
4.50429e-06
-3.52556e-07
4.51875e-06
2.08372e-07
4.51542e-06
6.12788e-08
4.51641e-06
-1.27057e-07
4.50637e-06
-5.35754e-08
4.50584e-06
9.72336e-09
4.51396e-06
4.6793e-08
4.51301e-06
3.74185e-08
4.50818e-06
-8.31546e-09
4.50505e-06
-1.3765e-08
4.50124e-06
9.21107e-09
4.49866e-06
4.26458e-08
4.50003e-06
6.63334e-08
4.50181e-06
8.04932e-08
4.50122e-06
8.05844e-08
4.50222e-06
8.642e-08
9.13146e-08
4.50339e-06
4.63517e-06
-3.78518e-07
4.66251e-06
2.62335e-07
4.65411e-06
1.02115e-07
4.64274e-06
-3.41182e-07
4.65768e-06
1.93434e-07
4.65392e-06
6.50364e-08
4.65459e-06
-1.27727e-07
4.64598e-06
-4.49685e-08
4.64425e-06
1.14532e-08
4.65224e-06
3.88046e-08
4.6518e-06
3.78538e-08
4.6464e-06
-2.90853e-09
4.6435e-06
-1.08718e-08
4.64045e-06
1.22703e-08
4.63768e-06
4.54151e-08
4.63854e-06
6.54693e-08
4.64064e-06
7.83932e-08
4.64044e-06
8.0783e-08
4.64114e-06
8.57217e-08
9.01726e-08
4.64228e-06
4.7784e-06
-3.58223e-07
4.80499e-06
2.35742e-07
4.79753e-06
1.09571e-07
4.78546e-06
-3.29108e-07
4.80082e-06
1.78075e-07
4.79676e-06
6.90931e-08
4.79695e-06
-1.27921e-07
4.78984e-06
-3.78508e-08
4.78705e-06
1.42372e-08
4.79464e-06
3.12123e-08
4.79489e-06
3.76053e-08
4.78902e-06
2.96289e-09
4.78611e-06
-7.96251e-09
4.78386e-06
1.45182e-08
4.78111e-06
4.81699e-08
4.78137e-06
6.52093e-08
4.7836e-06
7.61606e-08
4.78398e-06
8.04084e-08
4.78449e-06
8.52076e-08
8.92548e-08
4.78541e-06
4.92607e-06
-3.38179e-07
4.95181e-06
2.1e-07
4.94538e-06
1.1601e-07
4.93259e-06
-3.16323e-07
4.94829e-06
1.62379e-07
4.94408e-06
7.32968e-08
4.94365e-06
-1.27486e-07
4.93804e-06
-3.22414e-08
4.93438e-06
1.78904e-08
4.94133e-06
2.42706e-08
4.94235e-06
3.65805e-08
4.93621e-06
9.1087e-09
4.93305e-06
-4.80395e-09
4.93158e-06
1.59867e-08
4.92906e-06
5.06853e-08
4.92871e-06
6.55604e-08
4.93084e-06
7.40289e-08
4.93187e-06
7.93837e-08
4.93241e-06
8.46687e-08
8.87063e-08
4.93296e-06
5.07833e-06
-3.18439e-07
5.10313e-06
1.85208e-07
5.09777e-06
1.21367e-07
5.08428e-06
-3.02835e-07
5.10021e-06
1.46445e-07
5.09602e-06
7.74907e-08
5.09482e-06
-1.26285e-07
5.09069e-06
-2.81163e-08
5.08639e-06
2.21986e-08
5.09245e-06
1.82081e-08
5.09428e-06
3.47534e-08
5.08809e-06
1.52951e-08
5.08449e-06
-1.20715e-09
5.08369e-06
1.67885e-08
5.08163e-06
5.27484e-08
5.08075e-06
6.64412e-08
5.08255e-06
7.22225e-08
5.08416e-06
7.77769e-08
5.08499e-06
8.38388e-08
8.85735e-08
5.08512e-06
5.23532e-06
-2.99058e-07
5.25907e-06
1.61461e-07
5.25484e-06
1.2559e-07
5.24068e-06
-2.88671e-07
5.25673e-06
1.30397e-07
5.25271e-06
8.15071e-08
5.25063e-06
-1.24203e-07
5.24791e-06
-2.54017e-08
5.2432e-06
2.6911e-08
5.24819e-06
1.3224e-08
5.25077e-06
3.21742e-08
5.2448e-06
2.12567e-08
5.24064e-06
2.95417e-09
5.24033e-06
1.71034e-08
5.23889e-06
5.41906e-08
5.23763e-06
6.76942e-08
5.23895e-06
7.09067e-08
5.24092e-06
7.58008e-08
5.24231e-06
8.24549e-08
8.87742e-08
5.24211e-06
5.39717e-06
-2.80091e-07
5.41978e-06
1.38845e-07
5.41674e-06
1.28638e-07
5.40194e-06
-2.7388e-07
5.41797e-06
1.14371e-07
5.41429e-06
8.51874e-08
5.41124e-06
-1.21155e-07
5.40983e-06
-2.39854e-08
5.40496e-06
3.17767e-08
5.40873e-06
9.45457e-09
5.41195e-06
2.89586e-08
5.40646e-06
2.67433e-08
5.4017e-06
7.71702e-09
5.40164e-06
1.71616e-08
5.40093e-06
5.49034e-08
5.3995e-06
6.91199e-08
5.40026e-06
7.0149e-08
5.40229e-06
7.37685e-08
5.40441e-06
8.03321e-08
8.90921e-08
5.40409e-06
5.56403e-06
-2.6159e-07
5.58543e-06
1.17444e-07
5.58358e-06
1.30489e-07
5.56823e-06
-2.5853e-07
5.58409e-06
9.85171e-08
5.5809e-06
8.83768e-08
5.57683e-06
-1.17092e-07
5.57656e-06
-2.37146e-08
5.5718e-06
3.65414e-08
5.57427e-06
6.98634e-09
5.57796e-06
2.5269e-08
5.57316e-06
3.15363e-08
5.56785e-06
1.3029e-08
5.56779e-06
1.72174e-08
5.56785e-06
5.48477e-08
5.56646e-06
7.05131e-08
5.5667e-06
6.99055e-08
5.56845e-06
7.2018e-08
5.57135e-06
7.74307e-08
8.92035e-08
5.57124e-06
5.73606e-06
-2.43606e-07
5.75617e-06
9.73294e-08
5.75553e-06
1.31135e-07
5.7397e-06
-2.42708e-07
5.75523e-06
8.29951e-08
5.75267e-06
9.09336e-08
5.74758e-06
-1.12004e-07
5.74826e-06
-2.4398e-08
5.74384e-06
4.09638e-08
5.74499e-06
5.83677e-09
5.74894e-06
2.13227e-08
5.74503e-06
3.54467e-08
5.73928e-06
1.87752e-08
5.73899e-06
1.7512e-08
5.73978e-06
5.40536e-08
5.7386e-06
7.16945e-08
5.73847e-06
7.00326e-08
5.73966e-06
7.08341e-08
5.7432e-06
7.38895e-08
8.87345e-08
5.74367e-06
5.9134e-06
-2.26188e-07
5.93217e-06
7.85641e-08
5.93271e-06
1.30589e-07
5.91653e-06
-2.26521e-07
5.93155e-06
6.79687e-08
5.92975e-06
9.27344e-08
5.92367e-06
-1.05923e-07
5.92509e-06
-2.58141e-08
5.92122e-06
4.48248e-08
5.9211e-06
5.96455e-09
5.92507e-06
1.7352e-08
5.92216e-06
3.83512e-08
5.91616e-06
2.47765e-08
5.91542e-06
1.82559e-08
5.91686e-06
5.26127e-08
5.91602e-06
7.2532e-08
5.91573e-06
7.0323e-08
5.91619e-06
7.03771e-08
5.92006e-06
7.00151e-08
8.7341e-08
5.92146e-06
6.09622e-06
-2.09381e-07
6.11359e-06
6.11988e-08
6.11529e-06
1.28882e-07
6.09886e-06
-2.1009e-07
6.11323e-06
5.35985e-08
6.11229e-06
9.36806e-08
6.10528e-06
-9.89177e-08
6.1072e-06
-2.77329e-08
6.10407e-06
4.79515e-08
6.10278e-06
7.26092e-09
6.10653e-06
1.35988e-08
6.10468e-06
4.02025e-08
6.09865e-06
3.08029e-08
6.0973e-06
1.96068e-08
6.09925e-06
5.06625e-08
6.09883e-06
7.29492e-08
6.0986e-06
7.05596e-08
6.09833e-06
7.06401e-08
6.10212e-06
6.62284e-08
8.4793e-08
6.10467e-06
6.28468e-06
-1.93225e-07
6.30061e-06
4.5271e-08
6.30342e-06
1.26066e-07
6.28689e-06
-1.93551e-07
6.30045e-06
4.00379e-08
6.30042e-06
9.37035e-08
6.2926e-06
-9.10976e-08
6.29478e-06
-2.99114e-08
6.29252e-06
5.02111e-08
6.29022e-06
9.56652e-09
6.29352e-06
1.02928e-08
6.2927e-06
4.10214e-08
6.2869e-06
3.66036e-08
6.28485e-06
2.16565e-08
6.28714e-06
4.83745e-08
6.28717e-06
7.29198e-08
6.28716e-06
7.05675e-08
6.28636e-06
7.14435e-08
6.28961e-06
6.29793e-08
8.10411e-08
6.29336e-06
6.47895e-06
-1.77758e-07
6.49341e-06
3.0804e-08
6.49727e-06
1.22211e-07
6.48077e-06
-1.7705e-07
6.49337e-06
2.74309e-08
6.49431e-06
9.2761e-08
6.48582e-06
-8.26016e-08
6.48802e-06
-3.21132e-08
6.48671e-06
5.15206e-08
6.48359e-06
1.26839e-08
6.48625e-06
7.63215e-09
6.48638e-06
4.08988e-08
6.48105e-06
4.19284e-08
6.47829e-06
2.44213e-08
6.48072e-06
4.5939e-08
6.48119e-06
7.24507e-08
6.48151e-06
7.02524e-08
6.48048e-06
7.24715e-08
6.4828e-06
6.06546e-08
7.62464e-08
6.4876e-06
6.67919e-06
-1.63012e-07
6.69219e-06
1.78063e-08
6.69699e-06
1.17408e-07
6.68068e-06
-1.60738e-07
6.69221e-06
1.59015e-08
6.69412e-06
9.08522e-08
6.68512e-06
-7.36027e-08
6.68711e-06
-3.41107e-08
6.68678e-06
5.18501e-08
6.68308e-06
1.63867e-08
6.68494e-06
5.76992e-09
6.68586e-06
3.99788e-08
6.68124e-06
4.65551e-08
6.67782e-06
2.78417e-08
6.6802e-06
4.3557e-08
6.68109e-06
7.15623e-08
6.68173e-06
6.96141e-08
6.68085e-06
7.3344e-08
6.68202e-06
5.94914e-08
7.07657e-08
6.6875e-06
6.88559e-06
-1.49011e-07
6.89712e-06
6.27076e-09
6.90277e-06
1.11764e-07
6.8868e-06
-1.44769e-07
6.89715e-06
5.5539e-09
6.89999e-06
8.80073e-08
6.89068e-06
-6.4288e-08
6.89227e-06
-3.57076e-08
6.8929e-06
5.1227e-08
6.88885e-06
2.04337e-08
6.88982e-06
4.80289e-09
6.89134e-06
3.8452e-08
6.88759e-06
5.0305e-08
6.88365e-06
3.17876e-08
6.88578e-06
4.14282e-08
6.88707e-06
7.02716e-08
6.88795e-06
6.87349e-08
6.88758e-06
7.37065e-08
6.88756e-06
5.95187e-08
6.50964e-08
6.89323e-06
7.09833e-06
-1.35775e-07
7.10842e-06
-3.82496e-09
7.11479e-06
1.05395e-07
7.09931e-06
-1.29289e-07
7.1084e-06
-3.53525e-09
7.11212e-06
8.42911e-08
7.10268e-06
-5.48561e-08
7.10372e-06
-3.6744e-08
7.10521e-06
4.97328e-08
7.10107e-06
2.45827e-08
7.10111e-06
4.76213e-09
7.10302e-06
3.65402e-08
7.10026e-06
5.30606e-08
7.09598e-06
3.60709e-08
7.09767e-06
3.97384e-08
7.09935e-06
6.85884e-08
7.10034e-06
6.77494e-08
7.10074e-06
7.33084e-08
7.09971e-06
6.05468e-08
5.97915e-08
7.10501e-06
7.31759e-06
-1.23317e-07
7.32628e-06
-1.25185e-08
7.33324e-06
9.84326e-08
7.31839e-06
-1.14438e-07
7.32618e-06
-1.13168e-08
7.33067e-06
7.98e-08
7.32131e-06
-4.55037e-08
7.32168e-06
-3.71061e-08
7.32392e-06
4.74935e-08
7.31989e-06
2.86054e-08
7.31904e-06
5.61696e-09
7.32111e-06
3.44702e-08
7.31939e-06
5.47818e-08
7.315e-06
4.04619e-08
7.31609e-06
3.86402e-08
7.31816e-06
6.65256e-08
7.31911e-06
6.67961e-08
7.32036e-06
7.20565e-08
7.3187e-06
6.22097e-08
5.53545e-08
7.32314e-06
7.54357e-06
-1.11644e-07
7.55091e-06
-1.9862e-08
7.55833e-06
9.10115e-08
7.54424e-06
-1.00343e-07
7.55069e-06
-1.77712e-08
7.55584e-06
7.46571e-08
7.54676e-06
-3.64263e-08
7.54637e-06
-3.67147e-08
7.5492e-06
4.46592e-08
7.5455e-06
3.23084e-08
7.54384e-06
7.27725e-09
7.54585e-06
3.24565e-08
7.54513e-06
5.55074e-08
7.54088e-06
4.47095e-08
7.54128e-06
3.82355e-08
7.54369e-06
6.41182e-08
7.54452e-06
6.59677e-08
7.54654e-06
7.00314e-08
7.5447e-06
6.405e-08
5.21413e-08
7.54792e-06
7.77647e-06
-1.00755e-07
7.78253e-06
-2.59208e-08
7.79027e-06
8.32717e-08
7.77704e-06
-8.71099e-08
7.78218e-06
-2.29108e-08
7.78783e-06
6.90052e-08
7.7792e-06
-2.77953e-08
7.77803e-06
-3.55509e-08
7.78128e-06
4.14099e-08
7.77806e-06
3.55348e-08
7.77573e-06
9.60589e-09
7.7775e-06
3.06843e-08
7.77766e-06
5.53479e-08
7.7738e-06
4.85669e-08
7.77348e-06
3.85607e-08
7.77615e-06
6.14419e-08
7.77684e-06
6.52791e-08
7.77941e-06
6.74616e-08
7.77785e-06
6.5613e-08
5.02945e-08
7.77969e-06
8.01649e-06
-9.06452e-08
8.02134e-06
-3.0771e-08
8.02927e-06
7.535e-08
8.01698e-06
-7.48264e-08
8.02085e-06
-2.67778e-08
8.02685e-06
6.30002e-08
8.01882e-06
-1.97627e-08
8.0169e-06
-3.3629e-08
8.02039e-06
3.79229e-08
8.01774e-06
3.81796e-08
8.01491e-06
1.24366e-08
8.0163e-06
2.92918e-08
8.01718e-06
5.447e-08
8.01393e-06
5.182e-08
8.01291e-06
3.9577e-08
8.01573e-06
5.86208e-08
8.01635e-06
6.4663e-08
8.01915e-06
6.4664e-08
8.01823e-06
6.6531e-08
4.97269e-08
8.0188e-06
8.26386e-06
-8.13002e-08
8.26758e-06
-3.44998e-08
8.27555e-06
6.73815e-08
8.26428e-06
-6.35575e-08
8.26695e-06
-2.94402e-08
8.27314e-06
5.68025e-08
8.26583e-06
-1.24484e-08
8.26321e-06
-3.10094e-08
8.26675e-06
3.43808e-08
8.26476e-06
4.01762e-08
8.2616e-06
1.55955e-08
8.26253e-06
2.83619e-08
8.26392e-06
5.30728e-08
8.26143e-06
5.43123e-08
8.25984e-06
4.11702e-08
8.26264e-06
5.58194e-08
8.26331e-06
6.39967e-08
8.26601e-06
6.19608e-08
8.26596e-06
6.65857e-08
5.01612e-08
8.26552e-06
8.51878e-06
-7.27017e-08
8.52148e-06
-3.72019e-08
8.52937e-06
5.94935e-08
8.51915e-06
-5.33444e-08
8.5207e-06
-3.09923e-08
8.52693e-06
5.05736e-08
8.52042e-06
-5.93906e-09
8.5172e-06
-2.77876e-08
8.52063e-06
3.09489e-08
8.5193e-06
4.15121e-08
8.51599e-06
1.89035e-08
8.51643e-06
2.79266e-08
8.51813e-06
5.13634e-08
8.51648e-06
5.59623e-08
8.51449e-06
4.3163e-08
8.51709e-06
5.32191e-08
8.51794e-06
6.31444e-08
8.5203e-06
5.96022e-08
8.52115e-06
6.57355e-08
5.12036e-08
8.52011e-06
8.78148e-06
-6.48256e-08
8.78326e-06
-3.89778e-08
8.79094e-06
5.18043e-08
8.78181e-06
-4.42059e-08
8.78236e-06
-3.15465e-08
8.78847e-06
4.44654e-08
8.78282e-06
-2.86334e-10
8.77911e-06
-2.40831e-08
8.78229e-06
2.77708e-08
8.78159e-06
4.22134e-08
8.77829e-06
2.21975e-08
8.77825e-06
2.79674e-08
8.78008e-06
4.95338e-08
8.77928e-06
5.67693e-08
8.7771e-06
4.53369e-08
8.77933e-06
5.0987e-08
8.78048e-06
6.20015e-08
8.78236e-06
5.77182e-08
8.784e-06
6.40994e-08
5.24306e-08
8.78277e-06
9.0522e-06
-5.7643e-08
9.05316e-06
-3.99313e-08
9.06054e-06
4.4419e-08
9.05247e-06
-3.6138e-08
9.05215e-06
-3.12275e-08
9.05801e-06
3.8613e-08
9.05323e-06
4.49204e-09
9.04917e-06
-2.00283e-08
9.05199e-06
2.49591e-08
9.05186e-06
4.234e-08
9.04872e-06
2.53376e-08
9.04826e-06
2.8427e-08
9.05005e-06
4.77444e-08
9.05001e-06
5.6807e-08
9.04789e-06
4.74618e-08
9.04963e-06
4.92451e-08
9.0511e-06
6.05252e-08
9.05251e-06
5.63105e-08
9.05471e-06
6.19056e-08
5.34692e-08
9.05367e-06
9.33119e-06
-5.11215e-08
9.33142e-06
-4.01662e-08
9.33842e-06
3.7427e-08
9.33139e-06
-2.9114e-08
9.33034e-06
-3.01702e-08
9.33582e-06
3.31314e-08
9.33189e-06
8.41416e-09
9.32763e-06
-1.57657e-08
9.33e-06
2.25943e-08
9.33036e-06
4.19757e-08
9.32749e-06
2.82123e-08
9.32669e-06
2.92215e-08
9.32832e-06
4.61134e-08
9.32892e-06
5.62051e-08
9.32706e-06
4.93267e-08
9.32826e-06
4.8047e-08
9.33004e-06
5.87458e-08
9.33107e-06
5.52762e-08
9.33355e-06
5.94249e-08
5.40548e-08
9.33297e-06
9.61869e-06
-4.52249e-08
9.61831e-06
-3.97856e-08
9.62484e-06
3.09025e-08
9.61881e-06
-2.30881e-08
9.61715e-06
-2.85133e-08
9.62217e-06
2.81132e-08
9.61906e-06
1.15255e-08
9.61473e-06