/*--------------------------------*- C++ -*----------------------------------*\
| =========                 |                                                 |
| \\      /  F ield         | OpenFOAM: The Open Source CFD Toolbox           |
|  \\    /   O peration     | Version:  v2012                                 |
|   \\  /    A nd           | Website:  www.openfoam.com                      |
|    \\/     M anipulation  |                                                 |
\*---------------------------------------------------------------------------*/
FoamFile
{
    version     2.0;
    format      ascii;
    class       volVectorField;
    location    "0.1";
    object      U;
}
// * * * * * * * * * * * * * * * * * * * * * * * * * * * * * * * * * * * * * //

dimensions      [0 1 -1 0 0 0 0];


internalField   nonuniform List<vector> 
8000
(
(0.957285 -0.00823172 0)
(1.08653 0.0112868 0)
(0.900063 -0.00259356 0)
(1.10839 -0.00827704 0)
(0.9133 0.00738583 0)
(1.07939 0.00315478 0)
(0.90967 -0.00506 0)
(1.08949 -0.00875966 0)
(0.920488 0.00418705 0)
(1.07764 0.00488749 0)
(0.910014 0.00395301 0)
(1.06727 -0.00654465 0)
(0.917449 -0.00467332 0)
(1.07704 -0.00795245 0)
(0.911089 0.00131013 0)
(1.07047 0.00694332 0)
(0.915707 0.00589265 0)
(1.0534 -0.00174453 0)
(0.908398 0.00429658 0)
(1.04992 -0.00660513 0)
(0.962982 -0.00866207 0)
(1.07704 0.0117096 0)
(0.923348 -0.00290733 0)
(1.09214 -0.00829794 0)
(0.929286 0.00749801 0)
(1.0613 0.00344543 0)
(0.934497 -0.00544821 0)
(1.06546 -0.00875848 0)
(0.942548 0.00415927 0)
(1.05022 0.00529568 0)
(0.944243 0.00393529 0)
(1.03318 -0.00657111 0)
(0.955237 -0.00509722 0)
(1.0357 -0.00770887 0)
(0.955068 0.00149593 0)
(1.01897 0.00666267 0)
(0.972482 0.00677773 0)
(0.994546 -0.00200299 0)
(0.976341 0.00530327 0)
(0.981093 -0.00771283 0)
(0.971806 -0.00898594 0)
(1.0593 0.0121086 0)
(0.953205 -0.00305472 0)
(1.06466 -0.00823556 0)
(0.954774 0.0077279 0)
(1.03968 0.00350588 0)
(0.965277 -0.00557315 0)
(1.03504 -0.00878927 0)
(0.969957 0.00434464 0)
(1.02316 0.00535785 0)
(0.976982 0.00411396 0)
(1.0092 -0.00672428 0)
(0.98412 -0.00511493 0)
(1.00918 -0.00765582 0)
(0.981676 0.00180361 0)
(0.997022 0.00638466 0)
(0.991019 0.00718748 0)
(0.988165 -0.00178859 0)
(0.988364 0.00496065 0)
(0.985368 -0.00547125 0)
(0.981007 -0.00917768 0)
(1.03854 0.0122131 0)
(0.978641 -0.0030456 0)
(1.03635 -0.00818333 0)
(0.97698 0.00787317 0)
(1.024 0.00347272 0)
(0.987653 -0.00549604 0)
(1.01225 -0.00880766 0)
(0.987352 0.00447285 0)
(1.00976 0.00527203 0)
(0.995068 0.0042893 0)
(1.00149 -0.00678212 0)
(0.995112 -0.00503248 0)
(1.00014 -0.00760361 0)
(0.989581 0.00208052 0)
(0.994153 0.00612555 0)
(0.996103 0.00741484 0)
(0.992216 -0.00176331 0)
(0.992319 0.00530664 0)
(0.990158 -0.0046822 0)
(0.988445 -0.0092663 0)
(1.02023 0.0121117 0)
(0.995033 -0.00294824 0)
(1.01546 -0.00814374 0)
(0.989617 0.00787594 0)
(1.01542 0.00342433 0)
(0.999308 -0.00532674 0)
(0.999953 -0.00877081 0)
(0.994016 0.00444302 0)
(1.00538 0.00515669 0)
(1.0028 0.00437421 0)
(1.00074 -0.00669658 0)
(0.997704 -0.00493412 0)
(0.996999 -0.0074657 0)
(0.99092 0.00218623 0)
(0.994376 0.00587688 0)
(0.998895 0.00747352 0)
(0.994851 -0.00157034 0)
(0.994924 0.00534167 0)
(0.992369 -0.00393599 0)
(0.993358 -0.00927111 0)
(1.00725 0.0119284 0)
(1.0033 -0.00282486 0)
(1.00376 -0.00808095 0)
(0.993971 0.00776883 0)
(1.01108 0.00336331 0)
(1.00404 -0.00510922 0)
(0.99483 -0.0086699 0)
(0.994921 0.00431254 0)
(1.00363 0.00499021 0)
(1.00537 0.00440187 0)
(1.00136 -0.00652927 0)
(0.997936 -0.00477302 0)
(0.995297 -0.00728967 0)
(0.99056 0.00216884 0)
(0.994127 0.00562653 0)
(1.00003 0.00739788 0)
(0.9962 -0.00130941 0)
(0.995906 0.00529329 0)
(0.993584 -0.00304564 0)
(0.996096 -0.00921368 0)
(0.999611 0.0117174 0)
(1.00655 -0.00270738 0)
(0.998688 -0.00798441 0)
(0.994104 0.00760548 0)
(1.00867 0.00327502 0)
(1.00552 -0.00488038 0)
(0.993264 -0.00852034 0)
(0.993961 0.00415272 0)
(1.00217 0.00478328 0)
(1.00558 0.00438593 0)
(1.00187 -0.0063293 0)
(0.997768 -0.00456117 0)
(0.994307 -0.00709751 0)
(0.989876 0.0021222 0)
(0.993427 0.00536298 0)
(0.999895 0.00722128 0)
(0.996701 -0.000965404 0)
(0.995929 0.00524399 0)
(0.994116 -0.00216448 0)
(0.997416 -0.00911737 0)
(0.995809 0.011497 0)
(1.00744 -0.00260309 0)
(0.997032 -0.007863 0)
(0.993124 0.00742739 0)
(1.00723 0.00316185 0)
(1.00576 -0.00466345 0)
(0.993094 -0.00833777 0)
(0.992943 0.0040042 0)
(1.00091 0.00456156 0)
(1.00494 0.00432303 0)
(1.00207 -0.00611882 0)
(0.997666 -0.00433365 0)
(0.993838 -0.00686169 0)
(0.989369 0.00206169 0)
(0.992691 0.00511467 0)
(0.999236 0.00698317 0)
(0.996709 -0.000584282 0)
(0.995659 0.00514584 0)
(0.994242 -0.00133717 0)
(0.997988 -0.00899935 0)
(0.994195 0.0112729 0)
(1.0075 -0.00250772 0)
(0.996698 -0.00772778 0)
(0.992358 0.00725305 0)
(1.00639 0.00303291 0)
(1.00561 -0.00446171 0)
(0.993313 -0.00813346 0)
(0.992384 0.00387492 0)
(1.00008 0.004338 0)
(1.00422 0.00422543 0)
(1.00205 -0.00590737 0)
(0.997662 -0.00410682 0)
(0.993705 -0.00658439 0)
(0.98917 0.00197998 0)
(0.992202 0.00490527 0)
(0.998563 0.00669696 0)
(0.996549 -0.000194419 0)
(0.995416 0.00501882 0)
(0.994233 -0.000558625 0)
(0.998229 -0.00886931 0)
(0.993618 0.0110448 0)
(1.00733 -0.00241503 0)
(0.996747 -0.00758663 0)
(0.992022 0.00708508 0)
(1.00591 0.00289583 0)
(1.00539 -0.00427057 0)
(0.99356 -0.007917 0)
(0.992238 0.0037572 0)
(0.99965 0.00411919 0)
(1.00367 0.00410646 0)
(1.00191 -0.00569282 0)
(0.997694 -0.00389398 0)
(0.993756 -0.00627379 0)
(0.98923 0.0018769 0)
(0.992008 0.00474265 0)
(0.998063 0.00637249 0)
(0.996392 0.000200785 0)
(0.99528 0.00489348 0)
(0.994224 0.000154289 0)
(0.998344 -0.00873199 0)
(0.99346 0.0108108 0)
(1.00712 -0.00232045 0)
(0.996872 -0.00744486 0)
(0.991971 0.00692163 0)
(1.00562 0.00275528 0)
(1.00519 -0.004086 0)
(0.993762 -0.00769379 0)
(0.992329 0.00364348 0)
(0.999476 0.003909 0)
(1.00329 0.00397171 0)
(1.00172 -0.00546936 0)
(0.997721 -0.00370296 0)
(0.993892 -0.00593147 0)
(0.989452 0.0017519 0)
(0.992017 0.00462129 0)
(0.997733 0.0060291 0)
(0.99628 0.000597557 0)
(0.995231 0.00476738 0)
(0.994248 0.000800012 0)
(0.998419 -0.00858945 0)
(0.99345 0.0105701 0)
(1.00691 -0.00222165 0)
(0.997002 -0.00730531 0)
(0.992053 0.00676148 0)
(1.0054 0.00261372 0)
(1.005 -0.00390613 0)
(0.993932 -0.00746585 0)
(0.992521 0.00352855 0)
(0.999421 0.00370888 0)
(1.003 0.00382557 0)
(1.00152 -0.00523322 0)
(0.997734 -0.00353617 0)
(0.994058 -0.00556289 0)
(0.989755 0.0016051 0)
(0.992126 0.00453061 0)
(0.99751 0.00568204 0)
(0.996208 0.000980336 0)
(0.995227 0.00464864 0)
(0.994302 0.00138469 0)
(0.998482 -0.00844242 0)
(0.993487 0.0103225 0)
(1.0067 -0.00211772 0)
(0.997131 -0.00716919 0)
(0.992182 0.00660407 0)
(1.00521 0.00247268 0)
(1.00482 -0.00373085 0)
(0.994088 -0.0072333 0)
(0.992746 0.00340874 0)
(0.999409 0.00352147 0)
(1.00275 0.00366919 0)
(1.00132 -0.0049814 0)
(0.997739 -0.00339529 0)
(0.99423 -0.0051734 0)
(0.990092 0.00144289 0)
(0.992272 0.00446439 0)
(0.997341 0.00534092 0)
(0.996162 0.00134243 0)
(0.995246 0.00455449 0)
(0.994374 0.00190293 0)
(0.998541 -0.00829114 0)
(0.993541 0.0100678 0)
(1.00649 -0.00200842 0)
(0.997261 -0.00703692 0)
(0.992324 0.00644933 0)
(1.00503 0.00233243 0)
(1.00465 -0.00355997 0)
(0.99424 -0.00699702 0)
(0.99298 0.00328319 0)
(0.999409 0.00334729 0)
(1.00252 0.00350164 0)
(1.00113 -0.00471263 0)
(0.99774 -0.00327989 0)
(0.994399 -0.00476892 0)
(0.990438 0.00126924 0)
(0.992428 0.00441419 0)
(0.997202 0.00501828 0)
(0.996134 0.00167815 0)
(0.995274 0.00448392 0)
(0.994456 0.00235424 0)
(0.998599 -0.00813569 0)
(0.993601 0.00980626 0)
(1.00627 -0.00189371 0)
(0.997394 -0.00690878 0)
(0.992467 0.00629731 0)
(1.00485 0.00219341 0)
(1.00447 -0.00339412 0)
(0.99439 -0.00675643 0)
(0.993212 0.00315121 0)
(0.999413 0.00318649 0)
(1.00229 0.00332158 0)
(1.00093 -0.0044292 0)
(0.997743 -0.00318534 0)
(0.994565 -0.00435623 0)
(0.990784 0.00109185 0)
(0.992584 0.00437005 0)
(0.99708 0.00472425 0)
(0.996121 0.0019731 0)
(0.995309 0.00443458 0)
(0.994543 0.00274384 0)
(0.998657 -0.0079761 0)
(0.993666 0.0095379 0)
(1.00605 -0.00177371 0)
(0.99753 -0.00678477 0)
(0.99261 0.00614794 0)
(1.00468 0.00205651 0)
(1.0043 -0.00323415 0)
(0.994539 -0.00651088 0)
(0.993441 0.00301218 0)
(0.999418 0.00304133 0)
(1.00208 0.00312927 0)
(1.00074 -0.00413106 0)
(0.997748 -0.00310864 0)
(0.994725 -0.00394191 0)
(0.991124 0.000921869 0)
(0.992741 0.00432268 0)
(0.996971 0.00446655 0)
(0.99612 0.0022261 0)
(0.99535 0.00440998 0)
(0.994633 0.00308189 0)
(0.998714 -0.00781242 0)
(0.993735 0.00926291 0)
(1.00583 -0.00164861 0)
(0.997668 -0.00666483 0)
(0.992751 0.00600101 0)
(1.0045 0.00192239 0)
(1.00413 -0.00308104 0)
(0.994686 -0.0062599 0)
(0.993667 0.00286551 0)
(0.999422 0.00291243 0)
(1.00187 0.00292798 0)
(1.00056 -0.00381976 0)
(0.997757 -0.00304738 0)
(0.99488 -0.00353194 0)
(0.991456 0.000766408 0)
(0.992898 0.00426488 0)
(0.996874 0.00424806 0)
(0.99613 0.00243537 0)
(0.995398 0.0044061 0)
(0.994724 0.00337188 0)
(0.998771 -0.00764469 0)
(0.993809 0.00898147 0)
(1.0056 -0.00151858 0)
(0.997808 -0.00654897 0)
(0.992891 0.0058565 0)
(1.00433 0.00179149 0)
(1.00396 -0.0029357 0)
(0.994831 -0.00600243 0)
(0.99389 0.00271025 0)
(0.999425 0.0027992 0)
(1.00166 0.00271579 0)
(1.00037 -0.00350267 0)
(0.99777 -0.00298996 0)
(0.995032 -0.00313737 0)
(0.99178 0.000633709 0)
(0.993057 0.00418527 0)
(0.996788 0.00407622 0)
(0.996152 0.00260323 0)
(0.995452 0.00441338 0)
(0.994817 0.00361732 0)
(0.998827 -0.00747298 0)
(0.993886 0.00869383 0)
(1.00538 -0.00138394 0)
(0.997949 -0.00643702 0)
(0.99303 0.00571421 0)
(1.00416 0.00166425 0)
(1.0038 -0.00279822 0)
(0.994973 -0.00573883 0)
(0.99411 0.0025467 0)
(0.999427 0.00270139 0)
(1.00147 0.00249681 0)
(1.00019 -0.00318378 0)
(0.997785 -0.00293361 0)
(0.995181 -0.00276491 0)
(0.992094 0.000534287 0)
(0.993219 0.00408118 0)
(0.996713 0.0039522 0)
(0.996183 0.00273577 0)
(0.995513 0.00442568 0)
(0.994911 0.00382548 0)
(0.998883 -0.00729738 0)
(0.993968 0.00840025 0)
(1.00515 -0.00124497 0)
(0.998091 -0.00632861 0)
(0.993169 0.00557351 0)
(1.00399 0.00154224 0)
(1.00364 -0.0026703 0)
(0.995112 -0.0054688 0)
(0.994327 0.00237552 0)
(0.999427 0.00261867 0)
(1.00128 0.00227565 0)
(1.00002 -0.00286613 0)
(0.997803 -0.00287519 0)
(0.995327 -0.00241809 0)
(0.992396 0.000475298 0)
(0.993384 0.00395596 0)
(0.996647 0.00386092 0)
(0.996221 0.00284092 0)
(0.995581 0.00444016 0)
(0.995006 0.00399975 0)
(0.998938 -0.00711797 0)
(0.994054 0.00810109 0)
(1.00492 -0.0011022 0)
(0.998233 -0.0062233 0)
(0.993308 0.00543434 0)
(1.00382 0.00142588 0)
(1.00348 -0.00255274 0)
(0.995247 -0.00519191 0)
(0.994541 0.00219607 0)
(0.999426 0.00254993 0)
(1.0011 0.00205423 0)
(0.999843 -0.0025581 0)
(0.997823 -0.00280193 0)
(0.995473 -0.00210386 0)
(0.992685 0.000458311 0)
(0.993553 0.00381148 0)
(0.996593 0.00379169 0)
(0.996265 0.00292893 0)
(0.995656 0.00445255 0)
(0.995102 0.00414212 0)
(0.998993 -0.0069349 0)
(0.994144 0.00779667 0)
(1.00469 -0.000955855 0)
(0.998375 -0.00612139 0)
(0.993448 0.0052961 0)
(1.00365 0.00131584 0)
(1.00333 -0.00244592 0)
(0.995378 -0.00490846 0)
(0.994753 0.00200972 0)
(0.999423 0.00249108 0)
(1.00093 0.0018376 0)
(0.999675 -0.00226263 0)
(0.997844 -0.0027125 0)
(0.995619 -0.00183625 0)
(0.992962 0.000475491 0)
(0.993723 0.00365417 0)
(0.996551 0.00373743 0)
(0.996315 0.0030078 0)
(0.995736 0.00446355 0)
(0.995198 0.00425773 0)
(0.999046 -0.00674829 0)
(0.994238 0.00748741 0)
(1.00445 -0.000806445 0)
(0.998516 -0.00602232 0)
(0.993588 0.00515778 0)
(1.00348 0.00121404 0)
(1.00318 -0.0023509 0)
(0.995504 -0.00461968 0)
(0.994961 0.0018198 0)
(0.999419 0.00243953 0)
(1.00076 0.00162921 0)
(0.999513 -0.00198529 0)
(0.997864 -0.0025998 0)
(0.995766 -0.00160937 0)
(0.993228 0.000526149 0)
(0.993894 0.00349609 0)
(0.996521 0.00368955 0)
(0.996369 0.00308244 0)
(0.995821 0.00447788 0)
(0.995295 0.0043537 0)
(0.9991 -0.00655833 0)
(0.994336 0.00717382 0)
(1.00422 -0.000654736 0)
(0.998656 -0.00592506 0)
(0.993729 0.00501929 0)
(1.00331 0.00112067 0)
(1.00304 -0.00226849 0)
(0.995626 -0.00432455 0)
(0.995166 0.00162564 0)
(0.999414 0.00239498 0)
(1.00061 0.00143359 0)
(0.999357 -0.00173279 0)
(0.997883 -0.0024596 0)
(0.995915 -0.00141789 0)
(0.993482 0.000602341 0)
(0.994064 0.00334306 0)
(0.996503 0.00363711 0)
(0.996429 0.00314741 0)
(0.99591 0.00449251 0)
(0.995392 0.00443275 0)
(0.999152 -0.00636518 0)
(0.994438 0.00685636 0)
(1.00399 -0.00050119 0)
(0.998794 -0.00582922 0)
(0.993872 0.00487963 0)
(1.00313 0.00103669 0)
(1.00291 -0.0021985 0)
(0.995742 -0.00402442 0)
(0.995368 0.00143112 0)
(0.999408 0.00234958 0)
(1.00046 0.00125737 0)
(0.99921 -0.00150885 0)
(0.997899 -0.00229598 0)
(0.996064 -0.00125824 0)
(0.993727 0.000687732 0)
(0.994231 0.00320327 0)
(0.996498 0.00358275 0)
(0.996495 0.00319965 0)
(0.996002 0.00450477 0)
(0.995488 0.00449828 0)
(0.999204 -0.00616907 0)
(0.994545 0.00653567 0)
(1.00376 -0.00034658 0)
(0.998929 -0.00573411 0)
(0.994016 0.00473796 0)
(1.00296 0.000963569 0)
(1.00278 -0.00214093 0)
(0.995854 -0.00372206 0)
(0.995564 0.0012409 0)
(0.999402 0.00229865 0)
(1.00031 0.00110404 0)
(0.999073 -0.00131743 0)
(0.997913 -0.00210773 0)
(0.996214 -0.0011194 0)
(0.993963 0.000776965 0)
(0.994396 0.00308946 0)
(0.996504 0.00353048 0)
(0.996566 0.00323687 0)
(0.996099 0.00451293 0)
(0.995582 0.00455708 0)
(0.999254 -0.00597023 0)
(0.994655 0.00621229 0)
(1.00353 -0.000191551 0)
(0.999062 -0.00563913 0)
(0.994162 0.00459333 0)
(1.00279 0.000903633 0)
(1.00266 -0.00209728 0)
(0.995961 -0.0034173 0)
(0.995756 0.00105507 0)
(0.999397 0.00224308 0)
(1.00017 0.000976815 0)
(0.998945 -0.00115393 0)
(0.997924 -0.00190227 0)
(0.996362 -0.000999778 0)
(0.994194 0.00085588 0)
(0.994557 0.00299598 0)
(0.996518 0.00347894 0)
(0.996644 0.0032593 0)
(0.996201 0.00451419 0)
(0.995676 0.00461124 0)
(0.999304 -0.00576894 0)
(0.99477 0.00588701 0)
(1.0033 -3.70778e-05 0)
(0.999191 -0.00554331 0)
(0.99431 0.00444518 0)
(1.00261 0.000854376 0)
(1.00254 -0.00206609 0)
(0.996064 -0.00311316 0)
(0.995942 0.000877965 0)
(0.999394 0.00217672 0)
(1.00004 0.000879957 0)
(0.998827 -0.00102068 0)
(0.997934 -0.00169013 0)
(0.996508 -0.000879195 0)
(0.99442 0.000923605 0)
(0.994716 0.00291638 0)
(0.99654 0.00343032 0)
(0.996728 0.00326778 0)
(0.996309 0.00450301 0)
(0.995768 0.0046608 0)
(0.999353 -0.00556549 0)
(0.994889 0.00556052 0)
(1.00308 0.000116055 0)
(0.999317 -0.00544601 0)
(0.99446 0.00429284 0)
(1.00244 0.000816248 0)
(1.00244 -0.00204605 0)
(0.996163 -0.00281341 0)
(0.996121 0.000715026 0)
(0.999394 0.00209598 0)
(0.999908 0.000810416 0)
(0.998719 -0.000914575 0)
(0.997944 -0.00147319 0)
(0.996649 -0.000757522 0)
(0.994641 0.000978182 0)
(0.994872 0.0028499 0)
(0.996568 0.00339258 0)
(0.996815 0.00326543 0)
(0.996424 0.00447342 0)
(0.99586 0.00470441 0)
(0.9994 -0.00536018 0)
(0.995012 0.00523354 0)
(1.00285 0.000267039 0)
(0.999439 -0.00534608 0)
(0.994612 0.00413461 0)
(1.00226 0.000792934 0)
(1.00234 -0.00203744 0)
(0.996259 -0.00252028 0)
(0.996291 0.000569208 0)
(0.999398 0.0019983 0)
(0.999781 0.000770722 0)
(0.998621 -0.000823676 0)
(0.997955 -0.00126618 0)
(0.996786 -0.000631824 0)
(0.994857 0.0010192 0)
(0.995029 0.00279031 0)
(0.996599 0.00336911 0)
(0.996905 0.00326093 0)
(0.996547 0.0044256 0)
(0.995953 0.00473986 0)
(0.999446 -0.00515342 0)
(0.995139 0.00490719 0)
(1.00263 0.000414288 0)
(0.999556 -0.00524194 0)
(0.994766 0.00397045 0)
(1.00209 0.000782985 0)
(1.00224 -0.00203969 0)
(0.996352 -0.00223498 0)
(0.996452 0.000442772 0)
(0.999406 0.00188092 0)
(0.99966 0.00075901 0)
(0.99853 -0.000744846 0)
(0.997969 -0.00107564 0)
(0.996917 -0.000488641 0)
(0.995068 0.00105504 0)
(0.995186 0.00272896 0)
(0.996636 0.00335741 0)
(0.996994 0.00326322 0)
(0.996677 0.00436235 0)
(0.996049 0.00476497 0)
(0.999491 -0.00494551 0)
(0.99527 0.00458209 0)
(1.00241 0.000557572 0)
(0.999669 -0.00513425 0)
(0.994923 0.00379996 0)
(1.00191 0.000785125 0)
(1.00216 -0.00204864 0)
(0.996444 -0.00196256 0)
(0.996603 0.000338879 0)
(0.999419 0.00174912 0)
(0.999543 0.000766246 0)
(0.998446 -0.00066867 0)
(0.997987 -0.000899684 0)
(0.997042 -0.000338092 0)
(0.995272 0.00109264 0)
(0.995346 0.00266203 0)
(0.996679 0.00335003 0)
(0.997079 0.00327642 0)
(0.996813 0.00428428 0)
(0.99615 0.0047732 0)
(0.999534 -0.00473691 0)
(0.995406 0.00425928 0)
(1.0022 0.000695471 0)
(0.999776 -0.00502171 0)
(0.995082 0.00362172 0)
(1.00173 0.000801035 0)
(1.00208 -0.00206443 0)
(0.996535 -0.00170565 0)
(0.996743 0.000259851 0)
(0.999438 0.00159975 0)
(0.999433 0.000785154 0)
(0.998367 -0.000588664 0)
(0.998009 -0.000750156 0)
(0.997163 -0.000186598 0)
(0.995466 0.00113861 0)
(0.995507 0.00258662 0)
(0.99673 0.0033346 0)
(0.99716 0.00330238 0)
(0.996952 0.00419717 0)
(0.996256 0.00476025 0)
(0.999576 -0.00452806 0)
(0.995545 0.00394 0)
(1.00199 0.000826416 0)
(0.999877 -0.00490154 0)
(0.995244 0.00343567 0)
(1.00156 0.000829856 0)
(1.002 -0.0020841 0)
(0.996626 -0.00146684 0)
(0.99687 0.000207339 0)
(0.999461 0.00143633 0)
(0.999331 0.000814599 0)
(0.998291 -0.000500008 0)
(0.998036 -0.000624641 0)
(0.997282 -3.28407e-05 0)
(0.995651 0.00119671 0)
(0.995668 0.00250733 0)
(0.996792 0.00330554 0)
(0.997237 0.00334307 0)
(0.997089 0.00411321 0)
(0.996368 0.00472556 0)
(0.999617 -0.0043194 0)
(0.995688 0.00362498 0)
(1.00178 0.000950388 0)
(0.999972 -0.00477491 0)
(0.995409 0.00324288 0)
(1.00138 0.000867721 0)
(1.00193 -0.00210402 0)
(0.996719 -0.00124749 0)
(0.996985 0.000180094 0)
(0.999488 0.00126445 0)
(0.999239 0.000847338 0)
(0.998217 -0.000397743 0)
(0.998068 -0.000519446 0)
(0.997401 0.000112944 0)
(0.995824 0.00127093 0)
(0.995826 0.00243398 0)
(0.996866 0.00325772 0)
(0.997312 0.00339139 0)
(0.997223 0.00404369 0)
(0.996485 0.00467314 0)
(0.999655 -0.00411141 0)
(0.995834 0.00331545 0)
(1.00158 0.00106548 0)
(1.00006 -0.00464038 0)
(0.995578 0.00304155 0)
(1.0012 0.000915865 0)
(1.00186 -0.00212264 0)
(0.996814 -0.00105444 0)
(0.997086 0.000178751 0)
(0.999519 0.00108758 0)
(0.999158 0.000873338 0)
(0.998144 -0.000280227 0)
(0.998102 -0.000429938 0)
(0.997522 0.000239307 0)
(0.995987 0.00135919 0)
(0.995978 0.00237257 0)
(0.996953 0.00318728 0)
(0.997387 0.00343359 0)
(0.997349 0.00399412 0)
(0.996603 0.00460954 0)
(0.999692 -0.00390462 0)
(0.995984 0.00301258 0)
(1.00139 0.00117027 0)
(1.00014 -0.00449708 0)
(0.995749 0.00283297 0)
(1.00102 0.000972052 0)
(1.0018 -0.00213777 0)
(0.996912 -0.000885443 0)
(0.997174 0.000204391 0)
(0.999552 0.000913247 0)
(0.999091 0.00088905 0)
(0.998071 -0.000144667 0)
(0.998137 -0.000348017 0)
(0.997648 0.000342846 0)
(0.996141 0.00145681 0)
(0.996121 0.00233133 0)
(0.997051 0.00310014 0)
(0.997469 0.0034597 0)
(0.997469 0.00396705 0)
(0.99672 0.00454564 0)
(0.999727 -0.00369954 0)
(0.996136 0.00271739 0)
(1.0012 0.00126462 0)
(1.00021 -0.00434486 0)
(0.995924 0.00261872 0)
(1.00085 0.00103145 0)
(1.00174 -0.00214626 0)
(0.997016 -0.00074135 0)
(0.99725 0.000251889 0)
(0.999585 0.000743958 0)
(0.999039 0.000890536 0)
(0.998 1.86199e-06 0)
(0.998169 -0.000268075 0)
(0.997778 0.000420365 0)
(0.996291 0.00155643 0)
(0.996252 0.00231486 0)
(0.997156 0.00300275 0)
(0.997559 0.00345815 0)
(0.997583 0.00395682 0)
(0.996832 0.00449243 0)
(0.99976 -0.0034967 0)
(0.996292 0.00243094 0)
(1.00101 0.00134765 0)
(1.00028 -0.00418325 0)
(0.996101 0.00239827 0)
(1.00068 0.0010958 0)
(1.00168 -0.00214328 0)
(0.997124 -0.000628725 0)
(0.997313 0.00031789 0)
(0.999616 0.000587028 0)
(0.999004 0.000874107 0)
(0.997932 0.000156101 0)
(0.998197 -0.000183897 0)
(0.997914 0.000471358 0)
(0.996438 0.0016492 0)
(0.996369 0.00232348 0)
(0.997264 0.00290515 0)
(0.997663 0.0034223 0)
(0.997698 0.00395094 0)
(0.996936 0.0044593 0)
(0.999791 -0.00329666 0)
(0.99645 0.00215443 0)
(1.00084 0.00141782 0)
(1.00034 -0.00401258 0)
(0.996281 0.00217404 0)
(1.00051 0.00116125 0)
(1.00162 -0.00213053 0)
(0.997238 -0.000540334 0)
(0.997366 0.000400611 0)
(0.999643 0.000446892 0)
(0.998985 0.000841263 0)
(0.997868 0.000315107 0)
(0.998217 -8.9654e-05 0)
(0.998055 0.000498898 0)
(0.996589 0.00172808 0)
(0.996473 0.00235544 0)
(0.997368 0.00282055 0)
(0.997778 0.00335528 0)
(0.99782 0.00393403 0)
(0.997033 0.00445161 0)
(0.999819 -0.00309999 0)
(0.996609 0.00188895 0)
(1.00067 0.00147444 0)
(1.00038 -0.00383244 0)
(0.996464 0.00194723 0)
(1.00034 0.0012248 0)
(1.00155 -0.00210286 0)
(0.997359 -0.000478902 0)
(0.997409 0.000492716 0)
(0.999665 0.000327958 0)
(0.998983 0.000789228 0)
(0.997811 0.000474876 0)
(0.998227 2.05637e-05 0)
(0.998197 0.000508406 0)
(0.996745 0.00178588 0)
(0.996566 0.00240459 0)
(0.997463 0.00275752 0)
(0.997903 0.00326443 0)
(0.997955 0.00388972 0)
(0.997125 0.00446539 0)
(0.999846 -0.00290718 0)
(0.996771 0.00163531 0)
(1.00051 0.00151754 0)
(1.00042 -0.00364424 0)
(0.996648 0.00171992 0)
(1.00018 0.00128609 0)
(1.00149 -0.00205912 0)
(0.997487 -0.000443645 0)
(0.997445 0.000588858 0)
(0.999679 0.000234247 0)
(0.998998 0.000716215 0)
(0.997763 0.000626421 0)
(0.998225 0.000145247 0)
(0.998338 0.000507303 0)
(0.996911 0.00181866 0)
(0.996652 0.00246313 0)
(0.997545 0.0027208 0)
(0.998031 0.00316298 0)
(0.99811 0.00380702 0)
(0.997218 0.00449092 0)
(0.999871 -0.00271883 0)
(0.996933 0.00139465 0)
(1.00036 0.00154626 0)
(1.00045 -0.00344804 0)
(0.996835 0.00149416 0)
(1.00002 0.00133923 0)
(1.00142 -0.00199879 0)
(0.99762 -0.000431142 0)
(0.997476 0.000685361 0)
(0.999683 0.00016861 0)
(0.999028 0.000632043 0)
(0.997728 0.000760452 0)
(0.998212 0.000285169 0)
(0.998475 0.000504191 0)
(0.997088 0.00182442 0)
(0.996736 0.00252171 0)
(0.997611 0.00271003 0)
(0.998153 0.00306818 0)
(0.998286 0.00368175 0)
(0.997321 0.0045125 0)
(0.999894 -0.00253542 0)
(0.997095 0.00116773 0)
(1.00022 0.00156053 0)
(1.00047 -0.0032449 0)
(0.997022 0.00127173 0)
(0.999876 0.00138363 0)
(1.00135 -0.00192114 0)
(0.997759 -0.000437087 0)
(0.997504 0.000777774 0)
(0.999675 0.000129866 0)
(0.999072 0.000538948 0)
(0.997709 0.00087227 0)
(0.998188 0.000442527 0)
(0.998603 0.000507531 0)
(0.997276 0.0018042 0)
(0.996823 0.0025726 0)
(0.997664 0.00271988 0)
(0.998262 0.00299659 0)
(0.998483 0.00351743 0)
(0.997443 0.00450975 0)
(0.999914 -0.00235748 0)
(0.997257 0.000955258 0)
(1.00009 0.00156063 0)
(1.00048 -0.0030367 0)
(0.997209 0.00105574 0)
(0.999737 0.0014172 0)
(1.00127 -0.00182665 0)
(0.997903 -0.000457604 0)
(0.997532 0.000860365 0)
(0.999656 0.000119869 0)
(0.999126 0.00044372 0)
(0.997708 0.000958947 0)
(0.998155 0.000610947 0)
(0.998718 0.000522955 0)
(0.997474 0.00176016 0)
(0.996917 0.00260954 0)
(0.997706 0.00274116 0)
(0.998349 0.00295969 0)
(0.998692 0.00332653 0)
(0.997593 0.00446368 0)
(0.999933 -0.00218548 0)
(0.997418 0.000757911 0)
(0.999968 0.00154667 0)
(1.00048 -0.00282458 0)
(0.997395 0.000848006 0)
(0.999608 0.00143787 0)
(1.00118 -0.0017145 0)
(0.99805 -0.000489883 0)
(0.997562 0.000929067 0)
(0.999626 0.000137655 0)
(0.999188 0.000352328 0)
(0.997726 0.00101736 0)
(0.998115 0.000782331 0)
(0.998816 0.000555201 0)
(0.997678 0.0016967 0)
(0.997023 0.00262971 0)
(0.997744 0.00276353 0)
(0.998409 0.00296123 0)
(0.998902 0.00312867 0)
(0.997777 0.00435911 0)
(0.999949 -0.00201982 0)
(0.997577 0.000576095 0)
(0.999858 0.00151917 0)
(1.00048 -0.0026102 0)
(0.997579 0.000651045 0)
(0.999489 0.00144384 0)
(1.00109 -0.0015888 0)
(0.998199 -0.000527937 0)
(0.997596 0.000981771 0)
(0.999584 0.000178498 0)
(0.999252 0.000269304 0)
(0.997766 0.0010482 0)
(0.998073 0.000950683 0)
(0.998894 0.000608712 0)
(0.997887 0.00162025 0)
(0.997142 0.00263214 0)
(0.997784 0.00277648 0)
(0.998441 0.00299558 0)
(0.999097 0.00294861 0)
(0.997997 0.00418951 0)
(0.999963 -0.00186096 0)
(0.997734 0.00041031 0)
(0.999759 0.00147877 0)
(1.00046 -0.00239542 0)
(0.99776 0.000466424 0)
(0.999383 0.00143595 0)
(1.001 -0.00145036 0)
(0.998348 -0.000567935 0)
(0.997637 0.00101591 0)
(0.999532 0.000239241 0)
(0.999317 0.000200322 0)
(0.997827 0.0010536 0)
(0.998033 0.00110847 0)
(0.99895 0.000684452 0)
(0.998096 0.0015373 0)
(0.997273 0.00261759 0)
(0.997832 0.00277371 0)
(0.99845 0.00305002 0)
(0.999262 0.0028104 0)
(0.998249 0.00395949 0)
(0.999976 -0.00170917 0)
(0.997889 0.000260479 0)
(0.999671 0.00142674 0)
(1.00044 -0.00218224 0)
(0.997937 0.000295754 0)
(0.99929 0.00141447 0)
(1.00089 -0.00130212 0)
(0.998495 -0.00060634 0)
(0.997687 0.00103021 0)
(0.999471 0.000314538 0)
(0.999379 0.000147876 0)
(0.997908 0.00103521 0)
(0.998 0.00124827 0)
(0.998984 0.000781705 0)
(0.998299 0.00145479 0)
(0.997418 0.0025876 0)
(0.997892 0.00275353 0)
(0.998444 0.00310652 0)
(0.999383 0.00272963 0)
(0.998523 0.0036845 0)
(0.999987 -0.00156476 0)
(0.998039 0.000126751 0)
(0.999594 0.00136401 0)
(1.00041 -0.00197269 0)
(0.998108 0.000142175 0)
(0.99921 0.00137662 0)
(1.00079 -0.00114775 0)
(0.998637 -0.000639311 0)
(0.997745 0.0010248 0)
(0.999405 0.000400778 0)
(0.999434 0.000116676 0)
(0.998007 0.000999248 0)
(0.997977 0.00136523 0)
(0.998997 0.000897852 0)
(0.998494 0.00137925 0)
(0.997572 0.00254364 0)
(0.997966 0.00271917 0)
(0.998433 0.00314667 0)
(0.999454 0.00271214 0)
(0.998805 0.00339011 0)
(0.999996 -0.00142801 0)
(0.998186 9.03064e-06 0)
(0.999528 0.00129181 0)
(1.00038 -0.00176851 0)
(0.998273 6.21658e-06 0)
(0.999144 0.00132493 0)
(1.00068 -0.000989302 0)
(0.998774 -0.000664487 0)
(0.997814 0.00100154 0)
(0.999335 0.000490279 0)
(0.99948 0.000106319 0)
(0.99812 0.000950704 0)
(0.99797 0.00145469 0)
(0.99899 0.00102766 0)
(0.998676 0.0013166 0)
(0.997736 0.00248639 0)
(0.998054 0.00267634 0)
(0.99843 0.00315438 0)
(0.999472 0.00275141 0)
(0.999076 0.00310481 0)
(1 -0.001299 0)
(0.998328 -9.35303e-05 0)
(0.999474 0.00121203 0)
(1.00034 -0.00157193 0)
(0.998431 -0.000112099 0)
(0.999091 0.00126093 0)
(1.00057 -0.00083119 0)
(0.998902 -0.000677144 0)
(0.997893 0.00096242 0)
(0.999265 0.000578671 0)
(0.999515 0.00011738 0)
(0.998244 0.000896316 0)
(0.997981 0.00151468 0)
(0.998968 0.00116406 0)
(0.99884 0.00127191 0)
(0.997905 0.00241624 0)
(0.998151 0.00263204 0)
(0.998443 0.00312137 0)
(0.999444 0.00283221 0)
(0.99932 0.00285658 0)
(1.00001 -0.00117784 0)
(0.998464 -0.000180959 0)
(0.99943 0.00112636 0)
(1.00029 -0.00138427 0)
(0.998579 -0.000211708 0)
(0.999053 0.00118546 0)
(1.00046 -0.000676319 0)
(0.99902 -0.000676268 0)
(0.997981 0.000909684 0)
(0.999197 0.000662746 0)
(0.999538 0.000148462 0)
(0.998375 0.000841808 0)
(0.998012 0.00154525 0)
(0.998935 0.00129919 0)
(0.998984 0.0012494 0)
(0.998079 0.00233427 0)
(0.998255 0.00259244 0)
(0.998479 0.00304823 0)
(0.999383 0.00293218 0)
(0.999523 0.00266717 0)
(1.00001 -0.00106467 0)
(0.998595 -0.000253476 0)
(0.999396 0.00103565 0)
(1.00025 -0.00120731 0)
(0.998719 -0.000292627 0)
(0.999028 0.00110123 0)
(1.00034 -0.000527878 0)
(0.999128 -0.000661492 0)
(0.998078 0.000847094 0)
(0.999135 0.000737705 0)
(0.99955 0.000196286 0)
(0.998508 0.000792176 0)
(0.998064 0.00154895 0)
(0.998897 0.00142529 0)
(0.999104 0.00125144 0)
(0.998256 0.00224208 0)
(0.99836 0.00256022 0)
(0.998541 0.00294326 0)
(0.999306 0.00302581 0)
(0.999675 0.00254794 0)
(1.00002 -0.000959287 0)
(0.998719 -0.000312758 0)
(0.999372 0.000941851 0)
(1.0002 -0.00104218 0)
(0.998849 -0.000355679 0)
(0.999016 0.00101068 0)
(1.00024 -0.00038875 0)
(0.999223 -0.000631907 0)
(0.998183 0.000779301 0)
(0.99908 0.000801107 0)
(0.999551 0.000258227 0)
(0.998639 0.000751682 0)
(0.998136 0.00152999 0)
(0.998859 0.00153483 0)
(0.999199 0.00127771 0)
(0.998432 0.00214271 0)
(0.998464 0.00253414 0)
(0.998626 0.00282058 0)
(0.99923 0.00309135 0)
(0.999775 0.0024984 0)
(1.00002 -0.000861682 0)
(0.998837 -0.000359329 0)
(0.999357 0.000846963 0)
(1.00015 -0.000889772 0)
(0.998968 -0.000400764 0)
(0.999015 0.00091587 0)
(1.00013 -0.000260736 0)
(0.999307 -0.000590035 0)
(0.998293 0.000708269 0)
(0.999036 0.000850663 0)
(0.999543 0.000330212 0)
(0.998765 0.000722968 0)
(0.998225 0.00149396 0)
(0.998828 0.00162218 0)
(0.99927 0.00132571 0)
(0.998607 0.00204146 0)
(0.998566 0.00250999 0)
(0.998727 0.002696 0)
(0.99917 0.0031151 0)
(0.999827 0.00250697 0)
(1.00002 -0.000771756 0)
(0.998948 -0.000393934 0)
(0.99935 0.0007522 0)
(1.0001 -0.000750947 0)
(0.999076 -0.000429657 0)
(0.999026 0.000819771 0)
(1.00003 -0.000145904 0)
(0.999377 -0.000535825 0)
(0.998407 0.000638052 0)
(0.999003 0.000885849 0)
(0.999527 0.000408111 0)
(0.998881 0.000707378 0)
(0.99833 0.00144704 0)
(0.998807 0.00168385 0)
(0.999318 0.00139022 0)
(0.998775 0.00194478 0)
(0.998667 0.00248181 0)
(0.998837 0.00258297 0)
(0.999138 0.00309251 0)
(0.999841 0.00255441 0)
(1.00002 -0.000689084 0)
(0.999052 -0.000418216 0)
(0.999351 0.000659341 0)
(1.00005 -0.00062601 0)
(0.999174 -0.000443767 0)
(0.999046 0.000724637 0)
(0.999943 -4.52277e-05 0)
(0.999436 -0.000471425 0)
(0.998522 0.000572667 0)
(0.998982 0.000906791 0)
(0.999506 0.000486929 0)
(0.998987 0.000704209 0)
(0.998444 0.0013948 0)
(0.998801 0.00171868 0)
(0.999347 0.00146375 0)
(0.998934 0.00185906 0)
(0.998767 0.0024441 0)
(0.998949 0.00249 0)
(0.999139 0.00302754 0)
(0.999829 0.00261865 0)
(1.00002 -0.000613624 0)
(0.999149 -0.00043269 0)
(0.999359 0.000569595 0)
(1 -0.000515261 0)
(0.999261 -0.000444432 0)
(0.999074 0.000632529 0)
(0.999861 4.06327e-05 0)
(0.999483 -0.000399889 0)
(0.998636 0.000513451 0)
(0.998974 0.000913868 0)
(0.999483 0.000563134 0)
(0.999081 0.000712735 0)
(0.998566 0.00134275 0)
(0.998812 0.00172848 0)
(0.99936 0.00153841 0)
(0.99908 0.00178971 0)
(0.99887 0.00239356 0)
(0.999057 0.0024197 0)
(0.999171 0.00293047 0)
(0.999805 0.00267919 0)
(1.00002 -0.000544982 0)
(0.999238 -0.000438617 0)
(0.999373 0.000484024 0)
(0.999958 -0.000418141 0)
(0.999338 -0.00043391 0)
(0.999108 0.000545345 0)
(0.999788 0.000112427 0)
(0.99952 -0.00032367 0)
(0.998748 0.000462444 0)
(0.998978 0.000909373 0)
(0.99946 0.000634115 0)
(0.999164 0.000731028 0)
(0.998689 0.00129462 0)
(0.99884 0.00171662 0)
(0.999363 0.00160653 0)
(0.999209 0.00173967 0)
(0.998975 0.00232978 0)
(0.999158 0.00236911 0)
(0.99923 0.00281461 0)
(0.999781 0.00272029 0)
(1.00002 -0.000482746 0)
(0.999321 -0.000437482 0)
(0.999392 0.00040373 0)
(0.999917 -0.000334193 0)
(0.999405 -0.00041405 0)
(0.999148 0.00046484 0)
(0.999725 0.000170317 0)