/*--------------------------------*- C++ -*----------------------------------*\
| =========                 |                                                 |
| \\      /  F ield         | OpenFOAM: The Open Source CFD Toolbox           |
|  \\    /   O peration     | Version:  v2012                                 |
|   \\  /    A nd           | Website:  www.openfoam.com                      |
|    \\/     M anipulation  |                                                 |
\*---------------------------------------------------------------------------*/
FoamFile
{
    version     2.0;
    format      ascii;
    class       volScalarField;
    location    "0.3";
    object      p;
}
// * * * * * * * * * * * * * * * * * * * * * * * * * * * * * * * * * * * * * //

dimensions      [0 2 -2 0 0 0 0];


internalField   nonuniform List<scalar> 
8000
(
4.12939e-11
-0.00139738
-0.0010187
-0.00110659
-0.000771559
-0.000671366
-0.00113375
-0.00183014
-0.00135206
-0.000353077
-0.000929868
-0.000570631
-0.000167614
5.51104e-05
0.000131586
0.000690406
0.00156603
0.00257243
0.00358767
0.00613607
1.54501e-07
-0.0013985
-0.00101834
-0.00111113
-0.000765356
-0.000688232
-0.00113096
-0.00182042
-0.0013513
-0.000356298
-0.000929154
-0.000578727
-0.000166865
4.49177e-05
0.000137052
0.000660189
0.0015778
0.00254675
0.00358811
0.00585155
-6.86476e-07
-0.0014001
-0.00101889
-0.00111638
-0.000761702
-0.000708109
-0.00112255
-0.00180897
-0.0013524
-0.000361322
-0.000928088
-0.000589428
-0.000165467
3.18825e-05
0.000141252
0.000631627
0.00159216
0.00251709
0.00356528
0.00554503
-2.85159e-06
-0.00140213
-0.00102014
-0.00112288
-0.000761066
-0.000729172
-0.00111344
-0.00179722
-0.0013539
-0.000368295
-0.000926138
-0.000601359
-0.00016376
1.55266e-05
0.000145198
0.000603404
0.00160678
0.00248286
0.0035175
0.00526542
-6.11876e-06
-0.00140462
-0.00102165
-0.00113072
-0.000761231
-0.000751559
-0.00110446
-0.00178379
-0.00135555
-0.000377256
-0.0009238
-0.000615001
-0.000161691
-3.33495e-06
0.000151678
0.000571548
0.00161974
0.00244304
0.00345178
0.00501271
-1.01404e-05
-0.00140745
-0.00102312
-0.00113946
-0.000761683
-0.000774787
-0.00109507
-0.0017688
-0.00135746
-0.000387374
-0.000921438
-0.000630179
-0.000158788
-2.34066e-05
0.000158651
0.000539431
0.00162988
0.00239758
0.00337151
0.00477423
-1.46063e-05
-0.00141053
-0.00102444
-0.00114889
-0.000762378
-0.000798178
-0.0010853
-0.00175277
-0.00135951
-0.000398156
-0.000919047
-0.000646673
-0.000154892
-4.49749e-05
0.000165319
0.000508698
0.0016335
0.00234929
0.0032773
0.00454314
-1.93143e-05
-0.00141379
-0.00102571
-0.00115889
-0.000763241
-0.000821482
-0.00107537
-0.00173601
-0.00136155
-0.000409351
-0.000916719
-0.000664309
-0.000150444
-6.78026e-05
0.000171392
0.000479162
0.00162906
0.00229983
0.00316901
0.00431706
-2.41756e-05
-0.00141723
-0.00102703
-0.00116937
-0.000764294
-0.000844621
-0.00106543
-0.00171871
-0.00136361
-0.000420833
-0.000914489
-0.00068285
-0.00014598
-9.11296e-05
0.000175869
0.00045105
0.00161638
0.00224904
0.00304767
0.00409534
-2.91721e-05
-0.00142082
-0.0010285
-0.00118026
-0.000765581
-0.000867514
-0.0010556
-0.001701
-0.0013658
-0.000432444
-0.000912387
-0.000702101
-0.000141962
-0.000114278
0.000177772
0.000424873
0.0015951
0.00219627
0.00291539
0.00387722
-3.43129e-05
-0.00142458
-0.00103018
-0.00119145
-0.000767119
-0.000890094
-0.00104607
-0.00168292
-0.00136822
-0.000444004
-0.000910575
-0.000721799
-0.000138798
-0.000136755
0.00017638
0.000400918
0.00156494
0.00214096
0.00277445
0.00366144
-3.96131e-05
-0.00142846
-0.00103208
-0.00120287
-0.000768927
-0.000912305
-0.001037
-0.0016645
-0.00137098
-0.000455353
-0.000909255
-0.000741565
-0.000136993
-0.000158183
0.000171215
0.000379016
0.00152601
0.00208255
0.00262697
0.00344688
-4.50889e-05
-0.00143245
-0.00103425
-0.00121443
-0.000771042
-0.000934077
-0.00102857
-0.00164566
-0.00137424
-0.000466345
-0.000908585
-0.00076113
-0.000137032
-0.000178192
0.000161825
0.000358525
0.001479
0.00202044
0.00247476
0.00323284
-5.0759e-05
-0.0014365
-0.0010367
-0.00122606
-0.000773514
-0.000955335
-0.00102097
-0.00162632
-0.00137816
-0.000476828
-0.000908719
-0.000780363
-0.000139205
-0.00019659
0.00014792
0.000338939
0.0014248
0.00195389
0.00231926
0.00301911
-5.66468e-05
-0.0014406
-0.00103948
-0.00123768
-0.000776417
-0.000975987
-0.00101437
-0.00160636
-0.00138289
-0.00048666
-0.000909825
-0.00079914
-0.000143666
-0.000213483
0.000129593
0.000319544
0.00136424
0.00188226
0.00216172
0.00280584
-6.27818e-05
-0.00144469
-0.0010426
-0.00124922
-0.000779843
-0.000995921
-0.00100896
-0.00158568
-0.00138858
-0.000495747
-0.000912004
-0.000817382
-0.000150519
-0.000229126
0.000107223
0.000299388
0.00129813
0.00180524
0.00200324
0.00259328
-6.91993e-05
-0.00144872
-0.00104613
-0.00126062
-0.000783894
-0.00101502
-0.0010049
-0.00156415
-0.00139538
-0.000504033
-0.000915252
-0.000835156
-0.000159746
-0.00024394
8.14088e-05
0.000277521
0.00122704
0.00172285
0.00184467
0.00238162
-7.59406e-05
-0.00145266
-0.0010501
-0.00127181
-0.000788684
-0.00103316
-0.00100237
-0.00154167
-0.00140337
-0.000511513
-0.000919493
-0.000852695
-0.000171072
-0.000258609
5.27544e-05
0.000253271
0.00115129
0.00163554
0.00168687
0.00217103
-8.30532e-05
-0.00145642
-0.00105458
-0.00128271
-0.000794339
-0.00105021
-0.00100152
-0.00151817
-0.00141261
-0.000518272
-0.000924564
-0.000870358
-0.000184011
-0.000273932
2.16619e-05
0.000226266
0.0010711
0.00154393
0.00153067
0.0019616
-9.05909e-05
-0.00145995
-0.00105963
-0.00129325
-0.000800985
-0.00106605
-0.00100249
-0.00149353
-0.00142309
-0.000524478
-0.000930166
-0.000888655
-0.000197953
-0.000290616
-1.17258e-05
0.000196537
0.000986518
0.00144839
0.00137694
0.00175367
-9.86142e-05
-0.00146316
-0.0010653
-0.00130336
-0.000808755
-0.00108056
-0.0010054
-0.00146786
-0.00143476
-0.000530362
-0.00093586
-0.00090829
-0.000212222
-0.000309133
-4.75902e-05
0.000164533
0.000897477
0.00134884
0.00122654
0.00154785
-0.00010719
-0.00146596
-0.00107168
-0.00131297
-0.000817778
-0.00109363
-0.00101033
-0.00144123
-0.00144747
-0.000536309
-0.000941038
-0.000930048
-0.000226307
-0.000329556
-8.64723e-05
0.00013087
0.000804083
0.0012449
0.00108025
0.00134496
-0.00011639
-0.00146825
-0.00107884
-0.001322
-0.000828171
-0.00110521
-0.00101736
-0.00141367
-0.00146096
-0.000542893
-0.00094495
-0.000954639
-0.000240126
-0.000351635
-0.000129174
9.61385e-05
0.000706963
0.00113602
0.000938497
0.00114583
-0.000126295
-0.00146994
-0.00108685
-0.0013304
-0.000840044
-0.00111523
-0.0010265
-0.00138534
-0.00147485
-0.000550803
-0.000946838
-0.000982527
-0.000254011
-0.000374772
-0.000176576
6.06943e-05
0.000607205
0.00102159
0.000801296
0.000951457
-0.000136993
-0.00147089
-0.00109578
-0.00133811
-0.000853488
-0.00112368
-0.00103769
-0.00135649
-0.00148869
-0.000560798
-0.000946043
-0.00101379
-0.000268656
-0.00039805
-0.000229453
2.43947e-05
0.000506198
0.000901091
0.000668325
0.000762917
-0.000148579
-0.001471
-0.0011057
-0.00134511
-0.000868569
-0.00113061
-0.0010508
-0.00132747
-0.00150189
-0.00057362
-0.000942199
-0.00104826
-0.000285026
-0.000420453
-0.000288361
-1.34219e-05
0.000405633
0.000774327
0.000538766
0.000581189
-0.000161145
-0.00147013
-0.00111667
-0.00135139
-0.000885322
-0.00113608
-0.00106562
-0.00129873
-0.00151379
-0.000589904
-0.000935292
-0.00108541
-0.000304242
-0.000441089
-0.000353505
-5.38488e-05
0.000307352
0.000641594
0.000411293
0.000406959
-0.000174796
-0.00146818
-0.00112873
-0.00135695
-0.000903739
-0.00114025
-0.0010819
-0.00127079
-0.00152368
-0.00061008
-0.000925552
-0.00112442
-0.000327523
-0.00045922
-0.000424565
-9.84077e-05
0.000213041
0.000503802
0.000284291
0.000240556
-0.000189639
-0.00146501
-0.00114189
-0.00136186
-0.000923767
-0.00114329
-0.00109931
-0.00124423
-0.00153105
-0.000634344
-0.000913472
-0.00116433
-0.000356048
-0.000474353
-0.000500676
-0.000148804
0.000124103
0.000362491
0.000155933
8.17615e-05
-0.000205785
-0.00146051
-0.00115616
-0.00136618
-0.000945306
-0.00114544
-0.0011174
-0.00121965
-0.00153558
-0.000662666
-0.000899792
-0.00120419
-0.000390821
-0.000486354
-0.000580595
-0.000206786
4.14672e-05
0.000219843
2.45182e-05
-7.02268e-05
-0.00022334
-0.00145458
-0.00117151
-0.00137005
-0.000968178
-0.00114706
-0.00113564
-0.00119747
-0.00153714
-0.000694805
-0.0008854
-0.00124313
-0.000432635
-0.000495451
-0.000662739
-0.000274096
-3.47507e-05
7.86043e-05
-0.000111119
-0.000216715
-0.000242407
-0.00144715
-0.00118786
-0.00137361
-0.000992147
-0.00114856
-0.00115349
-0.00117798
-0.00153589
-0.00073026
-0.000871069
-0.0012804
-0.00048209
-0.00050227
-0.000745097
-0.000352147
-0.000105505
-5.82227e-05
-0.000251334
-0.000359386
-0.000263082
-0.00143816
-0.0012051
-0.00137709
-0.00101691
-0.00114972
-0.0011706
-0.00116142
-0.00153223
-0.000768404
-0.000857404
-0.00131532
-0.000539592
-0.000507913
-0.000825317
-0.000441705
-0.000172866
-0.000187793
-0.000395443
-0.000499993
-0.000285446
-0.00142758
-0.00122309
-0.00138072
-0.00104216
-0.00115247
-0.00118675
-0.00114776
-0.00152658
-0.000808829
-0.000845007
-0.00134723
-0.000605383
-0.000513884
-0.000900858
-0.000542677
-0.000239736
-0.000307875
-0.000541809
-0.000640032
-0.000309571
-0.00141543
-0.0012416
-0.00138483
-0.00106752
-0.00115632
-0.00120179
-0.00113687
-0.00151936
-0.000851294
-0.000834467
-0.00137555
-0.000679431
-0.000521959
-0.000969264
-0.000653888
-0.000309388
-0.000417157
-0.000688114
-0.000780655
-0.000335514
-0.00140178
-0.00126036
-0.00138974
-0.00109266
-0.00116144
-0.00121584
-0.00112851
-0.00151087
-0.000895608
-0.000826457
-0.00139963
-0.000761213
-0.000534278
-0.0010287
-0.000773281
-0.000384906
-0.000515171
-0.000831558
-0.000922705
-0.000363297
-0.00138677
-0.00127904
-0.00139581
-0.0011173
-0.00116795
-0.00122924
-0.00112235
-0.00150112
-0.000941651
-0.000821828
-0.00141882
-0.000849745
-0.000553224
-0.00107813
-0.000898215
-0.0004689
-0.000602183
-0.00096894
-0.00106657
-0.00039293
-0.00137056
-0.00129725
-0.00140336
-0.00114127
-0.00117576
-0.00124245
-0.00111829
-0.00149005
-0.000989238
-0.000821488
-0.00143259
-0.000943751
-0.00058118
-0.00111731
-0.0010254
-0.00056352
-0.000679456
-0.00109671
-0.00121181
-0.000424398
-0.00135343
-0.00131454
-0.00141261
-0.00116456
-0.00118466
-0.00125592
-0.00111634
-0.00147751
-0.00103809
-0.000826454
-0.00144066
-0.00104146
-0.000620374
-0.00114704
-0.00115099
-0.000670193
-0.000749561
-0.00121145
-0.00135682
-0.000457671
-0.00133574
-0.00133038
-0.00142364
-0.00118732
-0.00119438
-0.00126996
-0.00111654
-0.00146349
-0.00108783
-0.000837951
-0.0014434
-0.00114036
-0.000672368
-0.00116931
-0.00127091
-0.000789053
-0.000816268
-0.0013106
-0.00149902
-0.000492698
-0.00131751
-0.00134422
-0.00143645
-0.00120996
-0.00120452
-0.00128467
-0.0011193
-0.00144789
-0.00113765
-0.000857107
-0.00144198
-0.00123753
-0.000737444
-0.00118702
-0.00138165
-0.000918746
-0.000883988
-0.0013931
-0.00163514
-0.000529361
-0.00129991
-0.00135557
-0.00145102
-0.00123305
-0.00121473
-0.00129994
-0.00112525
-0.0014311
-0.00118629
-0.000884499
-0.00143802
-0.00133047
-0.000814749
-0.00120354
-0.00148088
-0.00105665
-0.000957047
-0.00145967
-0.00176146
-0.000567478
-0.00128324
-0.00136414
-0.0014668
-0.00125717
-0.00122495
-0.00131554
-0.00113478
-0.00141366
-0.00123238
-0.000920024
-0.00143356
-0.00141765
-0.000902644
-0.00122175
-0.00156742
-0.00119929
-0.00103915
-0.00151302
-0.00187466
-0.000606848
-0.00126793
-0.00136977
-0.00148322
-0.00128289
-0.00123537
-0.00133092
-0.00114807
-0.00139636
-0.00127476
-0.000963118
-0.0014309
-0.00149836
-0.00099892
-0.00124374
-0.00164092
-0.00134273
-0.00113289
-0.00155765
-0.00197258
-0.000647243
-0.00125438
-0.00137251
-0.00149971
-0.00131062
-0.00124625
-0.00134547
-0.0011652
-0.00138036
-0.00131262
-0.00101276
-0.00143219
-0.00157249
-0.0011013
-0.0012713
-0.00170192
-0.00148295
-0.00123925
-0.0015988
-0.00205437
-0.000688397
-0.001243
-0.0013726
-0.00151549
-0.00134052
-0.0012582
-0.00135867
-0.00118585
-0.00136709
-0.00134576
-0.00106726
-0.00143899
-0.00164045
-0.0012077
-0.00130562
-0.00175151
-0.00161605
-0.00135801
-0.00164201
-0.0021206
-0.000730023
-0.00123412
-0.00137051
-0.00152977
-0.00137253
-0.00127205
-0.00137026
-0.00120946
-0.0013578
-0.00137457
-0.00112454
-0.00145191
-0.00170341
-0.00131657
-0.00134729
-0.00179101
-0.00173827
-0.00148786
-0.00169305
-0.00217342
-0.000771811
-0.00122801
-0.00136688
-0.00154183
-0.00140638
-0.00128864
-0.00138035
-0.00123518
-0.00135327
-0.0013997
-0.00118284
-0.00147091
-0.00176264
-0.00142669
-0.00139672
-0.0018224
-0.0018462
-0.0016256
-0.00175738
-0.00221661
-0.000813455
-0.00122489
-0.00136245
-0.00155114
-0.00144147
-0.00130887
-0.00138941
-0.00126177
-0.00135375
-0.00142235
-0.00124113
-0.00149526
-0.00181888
-0.00153722
-0.00145428
-0.00184869
-0.00193719
-0.00176569
-0.0018392
-0.00225553
-0.000854673
-0.00122486
-0.00135803
-0.00155742
-0.00147688
-0.00133335
-0.00139812
-0.00128808
-0.00135911
-0.00144404
-0.00129879
-0.00152388
-0.00187252
-0.00164764
-0.00151994
-0.0018734
-0.00200999
-0.00190068
-0.00194003
-0.00229693
-0.000895248
-0.00122795
-0.0013544
-0.00156053
-0.00151159
-0.00136241
-0.00140759
-0.00131334
-0.00136897
-0.00146607
-0.00135564
-0.00155588
-0.0019237
-0.00175725
-0.00159345
-0.00189975
-0.0020661
-0.00202347
-0.00205698
-0.00234706
-0.000935042
-0.00123406
-0.0013522
-0.00156062
-0.00154448
-0.00139598
-0.00141937
-0.00133721
-0.00138228
-0.00148924
-0.001412
-0.00159083
-0.0019718
-0.00186479
-0.00167437
-0.00193071
-0.00210983
-0.00212827
-0.00218271
-0.00240983
-0.000973948
-0.00124299
-0.00135201
-0.0015582
-0.00157448
-0.00143366
-0.00143503
-0.00135998
-0.0013976
-0.00151349
-0.00146869
-0.0016288
-0.00201625
-0.00196902
-0.00176152
-0.00196857
-0.00214683
-0.00221199
-0.00230773
-0.00248567
-0.00101191
-0.00125445
-0.00135429
-0.001554
-0.00160076
-0.00147464
-0.00145576
-0.00138227
-0.00141379
-0.00153846
-0.00152626
-0.00167015
-0.00205708
-0.00206854
-0.00185292
-0.00201452
-0.00218264
-0.00227564
-0.00242337
-0.00257154
-0.00104893
-0.0012681
-0.0013594
-0.00154894
-0.00162273
-0.00151764
-0.00148238
-0.00140521
-0.00143013
-0.00156338
-0.00158459
-0.00171572
-0.00209508
-0.00216147
-0.00194607
-0.00206833
-0.0022222
-0.0023232
-0.00252321
-0.00266286
-0.00108503
-0.00128352
-0.00136754
-0.00154409
-0.00164008
-0.00156105
-0.00151533
-0.00143049
-0.0014464
-0.00158702
-0.00164284
-0.00176663
-0.00213192
-0.00224658
-0.00203807
-0.00212804
-0.0022699
-0.00235997
-0.00260302
-0.00275473
-0.0011203
-0.00130032
-0.00137873
-0.00154056
-0.00165286
-0.00160314
-0.0015544
-0.00146001
-0.00146298
-0.00160816
-0.00169994
-0.00182327
-0.00216933
-0.00232467
-0.00212598
-0.00218898
-0.00232867
-0.00239278
-0.00266089
-0.00284214
-0.00115483
-0.00131817
-0.00139286
-0.0015393
-0.00166143
-0.00164236
-0.00159891
-0.00149551
-0.00148079
-0.00162594
-0.00175445
-0.00188521
-0.00220897
-0.00239772
-0.00220881
-0.0022454
-0.00239714
-0.00243028
-0.0026987
-0.00292008
-0.00118875
-0.0013368
-0.00140966
-0.00154108
-0.00166659
-0.00167755
-0.00164764
-0.00153814
-0.00150126
-0.00164016
-0.00180433
-0.0019515
-0.00225263
-0.00246699
-0.00228848
-0.00229253
-0.00246821
-0.00248025
-0.0027224
-0.00298457
-0.0012222
-0.00135601
-0.00142871
-0.00154648
-0.00166947
-0.00170782
-0.00169882
-0.00158845
-0.00152636
-0.00165152
-0.00184724
-0.0020202
-0.00230218
-0.00253348
-0.00236803
-0.00232901
-0.00253202
-0.00254559
-0.00274157
-0.00303462
-0.0012553
-0.00137568
-0.00144945
-0.0015559
-0.00167148
-0.00173269
-0.00175029
-0.00164626
-0.00155824
-0.00166134
-0.00188147
-0.0020885
-0.0023588
-0.00259841
-0.00244937
-0.00235839
-0.00257947
-0.00262157
-0.00276727
-0.00307358
-0.00128818
-0.00139576
-0.00147127
-0.00156951
-0.00167414
-0.00175219
-0.00179975
-0.00171061
-0.00159901
-0.00167147
-0.0019064
-0.00215277
-0.00242227
-0.0026638
-0.00253295
-0.00238687
-0.00260531
-0.00269768
-0.00280698
-0.00310822
-0.00132094
-0.00141628
-0.00149359
-0.0015872
-0.00167898
-0.00176679
-0.00184517
-0.00177997
-0.00165017
-0.00168443
-0.00192249
-0.00220901
-0.0024906
-0.00273228
-0.00261861
-0.00241965
-0.00261107
-0.00276346
-0.00286005
-0.0031452
-0.00135365
-0.00143732
-0.00151587
-0.00160861
-0.00168727
-0.0017774
-0.00188506
-0.00185214
-0.0017123
-0.00170311
-0.00193137
-0.00225391
-0.00256026
-0.00280603
-0.00270689
-0.00246018
-0.00260356
-0.00281118
-0.00291937
-0.00318708
-0.00138637
-0.00145902
-0.00153778
-0.00163317
-0.00169995
-0.00178543
-0.00191854
-0.00192441
-0.00178502
-0.00173045
-0.0019354
-0.00228569
-0.00262632
-0.00288553
-0.00279951
-0.00251035
-0.00259015
-0.00283827
-0.00297746
-0.0032323
-0.00141906
-0.00148156
-0.00155915
-0.00166007
-0.00171765
-0.00179262
-0.00194532
-0.00199382
-0.00186685
-0.00176918
-0.00193751
-0.0023045
-0.00268313
-0.00296827
-0.00289942
-0.00257179
-0.00257667
-0.00284639
-0.00302799
-0.00327699
-0.00145169
-0.00150511
-0.00158002
-0.00168833
-0.00174065
-0.00180083
-0.00196579
-0.00205758
-0.00195548
-0.00182152
-0.00194111
-0.00231198
-0.00272634
-0.00304906
-0.00300875
-0.0026478
-0.00256748
-0.00283798
-0.00306715
-0.00331743
-0.00148418
-0.00152984
-0.00160056
-0.00171697
-0.00176882
-0.00181188
-0.00198084
-0.00211352
-0.00204771
-0.00188867
-0.0019499
-0.00231018
-0.00275463
-0.00312128
-0.00312526
-0.00274343
-0.0025678
-0.00281401
-0.00309205
-0.00335224
-0.00151647
-0.00155589
-0.00162105
-0.00174507
-0.00180162
-0.00182726
-0.00199185
-0.00216052
-0.00213957
-0.00197034
-0.00196793
-0.00230135
-0.00276895
-0.00317921
-0.00324166
-0.00286189
-0.00258665
-0.00277648
-0.00309724
-0.00338081
-0.00154845
-0.0015833
-0.00164193
-0.00177192
-0.00183824
-0.00184811
-0.00200067
-0.00219846
-0.00222686
-0.00206434
-0.0019995
-0.00228831
-0.0027705
-0.00322094
-0.0033496
-0.00299923
-0.00263506
-0.00273392
-0.00307631
-0.00339898
-0.00158008
-0.00161204
-0.00166368
-0.00179711
-0.00187752
-0.0018751
-0.00200932
-0.00222807
-0.00230589
-0.00216689
-0.00204847
-0.00227507
-0.00275961
-0.0032477
-0.00344189
-0.0031443
-0.00271931
-0.00270233
-0.00302992
-0.0033985
-0.0016113
-0.00164198
-0.00168677
-0.00182056
-0.00191811
-0.00190848
-0.00201976
-0.00225059
-0.00237427
-0.002273
-0.00211689
-0.00226738
-0.00273647
-0.00326074
-0.00351604
-0.00328556
-0.00283531
-0.00269956
-0.00297069
-0.00337324
-0.00164211
-0.00167291
-0.00171165
-0.00184249
-0.00195853
-0.00194799
-0.00203368
-0.00226761
-0.00243122
-0.00237686
-0.00220373
-0.00227237
-0.00270264
-0.00325912
-0.00357389
-0.00341366
-0.00297009
-0.00273576
-0.00291863
-0.00332636
-0.00167253
-0.00170459
-0.00173865
-0.00186336
-0.0019974
-0.00199286
-0.00205253
-0.002281
-0.00247733
-0.00247301
-0.0023044
-0.00229712
-0.00266277
-0.00323988
-0.00361768
-0.00352504
-0.00311013
-0.00280862
-0.00289424
-0.00327117
-0.00170262
-0.00173675
-0.00176792
-0.00188383
-0.0020336
-0.00204195
-0.00207745
-0.00229266
-0.00251409
-0.00255778
-0.00241238
-0.00234618
-0.00262541
-0.00320047
-0.00364634
-0.00362194
-0.00324532
-0.00290578
-0.00290822
-0.00322669
-0.00173248
-0.00176911
-0.0017994
-0.00190469
-0.00206646
-0.00209369
-0.00210918
-0.00230436
-0.00254309
-0.00263003
-0.00252015
-0.00241902
-0.00260179
-0.00314226
-0.00365484
-0.00370718
-0.00337263
-0.00301414
-0.00295576
-0.00320896
-0.00176221
-0.00180141
-0.00183284
-0.00192674
-0.0020958
-0.00214624
-0.00214787
-0.00231779
-0.00256588
-0.00269055
-0.00262086
-0.00250954
-0.00260243
-0.00307258
-0.00363697
-0.00377928
-0.00349498
-0.0031263
-0.00302134
-0.00322176
-0.00179195
-0.00183347
-0.00186782
-0.00195072
-0.00212198
-0.00219767
-0.00219303
-0.00233463
-0.00258388
-0.00274095
-0.0027104
-0.00260901
-0.002633
-0.00300439
-0.00359006
-0.00383193
-0.00361402
-0.00324348
-0.00309334
-0.00325617
-0.00182179
-0.00186515
-0.00190385
-0.00197714
-0.00214571
-0.00224625
-0.00224347
-0.00235643
-0.00259853
-0.00278275
-0.00278817
-0.00270823
-0.00269173
-0.00295321
-0.00351859
-0.00385725
-0.00372552
-0.00337022
-0.00317048
-0.00329996
-0.00185182
-0.0018964
-0.00194039
-0.00200621
-0.00216794
-0.00229073
-0.00229752
-0.00238434
-0.00261144
-0.00281695
-0.00285564
-0.00279974
-0.0027701
-0.00293148
-0.00343375
-0.00385019
-0.00382065
-0.00350629
-0.00326058
-0.00334597
-0.00188208
-0.00192722
-0.00197691
-0.00203787
-0.00218975
-0.00233049
-0.00235315
-0.00241882
-0.00262454
-0.00284421
-0.00291476
-0.00288026
-0.00285725
-0.00294409
-0.00335188
-0.00381226
-0.00388999
-0.00364391
-0.00337152
-0.00339623
-0.00191257
-0.00195768
-0.00201298
-0.00207176
-0.00221214
-0.00236556
-0.00240824
-0.00245949
-0.00263989
-0.00286528
-0.00296672
-0.00295064
-0.00294272
-0.00298725
-0.0032896
-0.00375159
-0.00392754
-0.00377016
-0.00350275
-0.00345853
-0.00194324
-0.00198783
-0.00204825
-0.00210732
-0.00223596
-0.0023965
-0.00246085
-0.00250513
-0.00265937
-0.00288144
-0.00301161
-0.00301367
-0.00301935
-0.00305055
-0.00325792
-0.00368084
-0.0039333
-0.00387226
-0.00364312
-0.00353857
-0.00197402
-0.00201776
-0.00208249
-0.00214389
-0.00226173
-0.00242424
-0.00250956
-0.00255393
-0.00268419
-0.00289474
-0.00304893
-0.00307175
-0.00308539
-0.00312208
-0.00325931
-0.00361517
-0.00391334
-0.00394237
-0.00377574
-0.00363481
-0.0020048
-0.0020475
-0.0021156
-0.0021808
-0.00228961
-0.00244983
-0.00255361
-0.00260392
-0.00271459
-0.00290772
-0.00307845
-0.0031256
-0.00314327
-0.00319146
-0.00328806
-0.0035673
-0.00387687
-0.0039794
-0.00388504
-0.00373847
-0.00203544
-0.00207708
-0.00214758
-0.00221742
-0.00231942
-0.00247429
-0.00259289
-0.00265317
-0.00274981
-0.00292279
-0.00310101
-0.00317433
-0.00319645
-0.00325284
-0.0033337
-0.00354365
-0.00383482
-0.00398856
-0.00396257
-0.00383755
-0.00206578
-0.00210643
-0.00217847
-0.0022532
-0.00235072
-0.00249849
-0.00262777
-0.00270014
-0.00278842
-0.00294156
-0.00311859
-0.00321645
-0.00324712
-0.00330565
-0.00338564
-0.00354375
-0.00379762
-0.00397845
-0.00400836
-0.0039218
-0.00209565
-0.00213549
-0.00220833
-0.00228772
-0.00238293
-0.00252305
-0.00265893
-0.00274377
-0.0028287
-0.00296457
-0.00313385
-0.00325115
-0.00329541
-0.00335237
-0.00343587
-0.00356185
-0.00377218
-0.00395856
-0.00402899
-0.00398612
-0.00212488
-0.00216411
-0.00223722
-0.00232072
-0.0024154
-0.00254824
-0.00268715
-0.00278355
-0.00286906
-0.00299137
-0.00314918
-0.00327886
-0.00333996
-0.00339567
-0.00348062
-0.00359011
-0.00376096
-0.00393754
-0.00403309
-0.00403066
-0.00215329
-0.00219212
-0.00226513
-0.00235203
-0.0024475
-0.00257407
-0.00271321
-0.00281937
-0.00290815
-0.0030209
-0.00316619
-0.00330115
-0.00337924
-0.00343687
-0.00351985
-0.00362179
-0.00376255
-0.00392133
-0.00402888
-0.00405897
-0.00218069
-0.00221932
-0.00229203
-0.00238156
-0.00247865
-0.00260028
-0.00273773
-0.0028515
-0.00294499
-0.00305179
-0.00318549
-0.00332007
-0.00341248
-0.00347577
-0.00355516
-0.00365275
-0.00377325
-0.00391266
-0.00402287
-0.00407591
-0.00220689
-0.0022455
-0.00231783
-0.00240926
-0.00250838
-0.00262646
-0.00276116
-0.00288031
-0.00297899
-0.00308275
-0.00320685
-0.00333749
-0.0034399
-0.00351136
-0.00358796
-0.00368147
-0.0037892
-0.00391163
-0.00401901
-0.00408627
-0.00223169
-0.0022704
-0.00234238
-0.00243511
-0.00253633
-0.00265214
-0.00278367
-0.00290623
-0.00300992
-0.00311271
-0.0032295
-0.0033546
-0.00346255
-0.00354266
-0.00361866
-0.00370797
-0.00380749
-0.0039168
-0.0040189
-0.00409379
-0.00225486
-0.00229379
-0.00236548
-0.00245904
-0.00256223
-0.00267684
-0.0028053
-0.00292961
-0.00303769
-0.00314091
-0.00325255
-0.00337192
-0.00348178
-0.00356928
-0.00364691
-0.00373256
-0.00382634
-0.0039262
-0.0040226
-0.00410078
-0.00227617
-0.00231538
-0.0023869
-0.00248095
-0.00258584
-0.00270007
-0.00282589
-0.00295072
-0.00306233
-0.00316678
-0.00327512
-0.00338941
-0.00349881
-0.0035916
-0.00367222
-0.00375539
-0.00384475
-0.00393798
-0.00402931
-0.00410835
-0.00229537
-0.00233491
-0.00240639
-0.00250073
-0.00260701
-0.00272139
-0.00284518
-0.00296977
-0.00308396
-0.00318994
-0.00329636
-0.00340663
-0.0035144
-0.00361036
-0.00369431
-0.00377645
-0.00386235
-0.00395074
-0.00403792
-0.00411669
-0.00231219
-0.00235208
-0.00242363
-0.00251817
-0.00262555
-0.0027404
-0.00286276
-0.00298678
-0.00310276
-0.00321026
-0.00331566
-0.00342293
-0.00352873
-0.00362617
-0.00371308
-0.00379547
-0.00387908
-0.00396391
-0.00404768
-0.00412575
-0.00232632
-0.00236662
-0.00243833
-0.00253302
-0.00264127
-0.00275668
-0.00287808
-0.00300143
-0.00311866
-0.00322762
-0.00333263
-0.00343771
-0.00354161
-0.00363947
-0.00372854
-0.00381184
-0.00389437
-0.00397724
-0.00405883
-0.00413585
-0.00233758
-0.00237819
-0.00245003
-0.00254481
-0.00265367
-0.0027696
-0.0028903
-0.00301287
-0.00313077
-0.00324089
-0.00334592
-0.00344965
-0.00355219
-0.00365022
-0.00374088
-0.00382499
-0.00390622
-0.00398663
-0.00406589
-0.00414204
-0.00234611
-0.00238813
-0.00246103
-0.00255652
-0.00266623
-0.00278303
-0.00290384
-0.00302608
-0.00314439
-0.00325543
-0.00336089
-0.00346405
-0.00356564
-0.0036634
-0.00375491
-0.00384025
-0.00392195
-0.00400199
-0.00408039
-0.00415588
0.00902463
0.00380655
-0.00317548
-0.00854938
-0.0102441
-0.00959311
-0.00879819
-0.0084218
-0.00827507
-0.00811625
-0.00792034
-0.0078946
-0.00793446
-0.0078556
-0.00784638
-0.00794524
-0.00799651
-0.00806123
-0.00818489
-0.00828776
-0.00835417
-0.00841334
-0.00847514
-0.00851451
-0.0085201
-0.00852619
-0.00853041
-0.00851726
-0.00851468
-0.0085233
-0.00851305
-0.00850258
-0.00851404
-0.00853196
-0.0085413
-0.00855588
-0.00857921
-0.00860755
-0.00863691
-0.00867058
-0.00870919
-0.00875045
-0.00879755
-0.00884525
-0.0089005
-0.00895478
-0.00901579
-0.00907717
-0.00914099
-0.0092101
-0.00927538
-0.00935042
-0.0094186
-0.00949466
-0.00956686
-0.00963584
-0.0097083
-0.00975676
-0.00976409
-0.00975015
0.00847104
0.00371174
-0.0031329
-0.00846907
-0.0101904
-0.00956666
-0.00878274
-0.00841208
-0.00826854
-0.00811125
-0.00791585
-0.00789064
-0.0079312
-0.00785267
-0.00784374
-0.00794305
-0.00799461
-0.00805951
-0.00818344
-0.00828655
-0.00835314
-0.00841248
-0.00847445
-0.00851398
-0.00851968
-0.00852587
-0.00853017
-0.00851707
-0.00851453
-0.0085232
-0.00851298
-0.00850252
-0.008514
-0.00853193
-0.00854129
-0.00855587
-0.00857921
-0.00860755
-0.00863691
-0.00867058
-0.0087092
-0.00875045
-0.00879755
-0.00884525
-0.0089005
-0.00895478
-0.00901579
-0.00907717
-0.00914099
-0.0092101
-0.00927538
-0.00935042
-0.0094186
-0.00949466
-0.00956686
-0.00963584
-0.0097083
-0.00975676
-0.00976408
-0.00975009
0.00799305
0.00364187
-0.00302962
-0.00831261
-0.0100981
-0.00953327
-0.008767
-0.0084
-0.00825942
-0.00810492
-0.00791117
-0.00788684
-0.00792798
-0.00784974
-0.00784114
-0.00794091
-0.00799272
-0.00805785
-0.00818205
-0.00828535
-0.00835209
-0.00841159
-0.00847372
-0.0085134
-0.00851922
-0.0085255
-0.0085299
-0.00851685
-0.00851436
-0.00852308
-0.00851289
-0.00850246
-0.00851395
-0.00853191
-0.00854127
-0.00855586
-0.0085792
-0.00860755
-0.00863691
-0.00867058
-0.0087092
-0.00875045
-0.00879755
-0.00884525
-0.0089005
-0.00895478
-0.00901579
-0.00907717
-0.00914099
-0.0092101
-0.00927538
-0.00935042
-0.0094186
-0.00949466
-0.00956686
-0.00963584
-0.0097083
-0.00975677
-0.00976409
-0.00975003
0.00754547
0.00356805
-0.00290702
-0.00812389
-0.00997685
-0.00948761
-0.00874359
-0.00838053
-0.00824401
-0.00809451
-0.00790443
-0.0078818
-0.00792371
-0.00784601
-0.00783785
-0.00793793
-0.00799003
-0.0080555
-0.00818002
-0.00828353
-0.00835045
-0.00841015
-0.00847249
-0.00851238
-0.00851838
-0.00852485
-0.00852941
-0.00851647
-0.00851405
-0.00852284
-0.00851272
-0.00850233
-0.00851386
-0.00853184
-0.00854122
-0.00855583
-0.00857918
-0.00860754
-0.00863691
-0.00867058
-0.00870919
-0.00875045
-0.00879755
-0.00884525
-0.0089005
-0.00895478
-0.00901579
-0.00907717
-0.00914099
-0.0092101
-0.00927538
-0.00935042
-0.0094186
-0.00949466
-0.00956686
-0.00963584
-0.0097083
-0.00975678
-0.00976413
-0.00974997
0.00710304
0.00347705
-0.00278319
-0.00792614
-0.00984508
-0.00943634
-0.00871644
-0.00835588
-0.00822279
-0.00807954
-0.00789495
-0.00787485
-0.00791783
-0.0078412
-0.0078337
-0.00793394
-0.00798627
-0.00805217
-0.00817701
-0.00828072
-0.00834787
-0.0084078
-0.00847039
-0.00851057
-0.00851689
-0.00852367
-0.0085285
-0.00851575
-0.00851347
-0.00852239
-0.00851238
-0.00850208
-0.00851368
-0.0085317
-0.00854112
-0.00855576
-0.00857914
-0.00860751
-0.00863689
-0.00867057
-0.00870919
-0.00875045
-0.00879755
-0.00884525
-0.0089005
-0.00895478
-0.00901579
-0.00907717
-0.00914099
-0.0092101
-0.00927538
-0.00935042
-0.0094186
-0.00949466
-0.00956686
-0.00963585
-0.00970831
-0.00975681
-0.00976421
-0.0097499
0.00666292
0.00336998
-0.00265872
-0.00772367
-0.00970765
-0.00938264
-0.00868879
-0.00832954
-0.00819855
-0.00806153
-0.0078832
-0.00786607
-0.00791037
-0.00783538
-0.00782884
-0.00792907
-0.00798155
-0.00804783
-0.00817288
-0.00827678
-0.00834421
-0.0084044
-0.00846724
-0.00850779
-0.00851455
-0.00852178
-0.00852701
-0.00851458
-0.0085125
-0.00852159
-0.00851178
-0.00850165
-0.00851335
-0.00853144
-0.00854092
-0.00855563
-0.00857905
-0.00860745
-0.00863685
-0.00867055
-0.00870918
-0.00875044
-0.00879755
-0.00884525
-0.0089005
-0.00895478
-0.00901579
-0.00907717
-0.00914099
-0.0092101
-0.00927538
-0.00935043
-0.0094186
-0.00949467
-0.00956687
-0.00963586
-0.00970832
-0.00975686
-0.00976432
-0.00974985
0.00622915
0.00325169
-0.00253273
-0.00751787
-0.00956583
-0.00932703
-0.00866134
-0.00830272
-0.00817282
-0.00804174
-0.00786991
-0.00785596
-0.00790178
-0.00782881
-0.00782346
-0.00792368
-0.00797624
-0.00804275
-0.00816779
-0.00827179
-0.00833954
-0.0084
-0.00846305
-0.008504
-0.00851132
-0.00851911
-0.00852489
-0.0085129
-0.0085111
-0.00852042
-0.00851087
-0.008501
-0.00851285
-0.00853103
-0.00854061
-0.0085554
-0.00857889
-0.00860734
-0.00863677
-0.0086705
-0.00870915
-0.00875043
-0.00879755
-0.00884525
-0.0089005
-0.00895478
-0.00901579
-0.00907717
-0.00914099
-0.0092101
-0.00927538
-0.00935043
-0.0094186
-0.00949467
-0.00956687
-0.00963587
-0.00970833
-0.00975691
-0.00976448
-0.00974981
0.00580678
0.00312421
-0.00240777
-0.00731085
-0.00942021
-0.00926919
-0.00863387
-0.00827564
-0.00814609
-0.00802072
-0.0078555
-0.00784493