/*--------------------------------*- C++ -*----------------------------------*\
| =========                 |                                                 |
| \\      /  F ield         | OpenFOAM: The Open Source CFD Toolbox           |
|  \\    /   O peration     | Version:  v2012                                 |
|   \\  /    A nd           | Website:  www.openfoam.com                      |
|    \\/     M anipulation  |                                                 |
\*---------------------------------------------------------------------------*/
FoamFile
{
    version     2.0;
    format      ascii;
    class       surfaceScalarField;
    location    "0.3";
    object      phi;
}
// * * * * * * * * * * * * * * * * * * * * * * * * * * * * * * * * * * * * * //

dimensions      [0 3 -1 0 0 0 0];
oriented        oriented;


internalField   nonuniform List<scalar> 
15820
(
1.57007e-06
2.75437e-07
1.5612e-06
-2.99828e-07
1.56559e-06
3.46597e-07
1.54762e-06
-3.69556e-07
1.57944e-06
5.45635e-07
1.51485e-06
-3.68949e-07
1.5331e-06
1.57722e-07
1.55291e-06
7.25136e-08
1.54679e-06
-1.24547e-07
1.54374e-06
2.24735e-08
1.53748e-06
6.3067e-08
1.52831e-06
1.04196e-07
1.53032e-06
1.40557e-07
1.52535e-06
4.4672e-08
1.53333e-06
1.75005e-07
1.52671e-06
-1.60783e-08
1.53267e-06
1.39023e-07
1.52693e-06
3.89447e-08
1.51932e-06
7.99583e-08
4.29335e-08
1.50049e-06
1.614e-06
2.75878e-07
1.60742e-06
-2.93254e-07
1.60771e-06
3.46306e-07
1.59266e-06
-3.54504e-07
1.61793e-06
5.20364e-07
1.56257e-06
-3.13584e-07
1.57149e-06
1.48801e-07
1.60003e-06
4.39672e-08
1.58953e-06
-1.14038e-07
1.59348e-06
1.85232e-08
1.58031e-06
7.62296e-08
1.57939e-06
1.05123e-07
1.5728e-06
1.47147e-07
1.57664e-06
4.08308e-08
1.57418e-06
1.77467e-07
1.5782e-06
-2.0098e-08
1.57184e-06
1.45384e-07
1.57946e-06
3.13196e-08
1.55944e-06
9.9974e-08
4.14011e-08
1.56098e-06
1.65981e-06
2.80105e-07
1.65521e-06
-2.88651e-07
1.65264e-06
3.48866e-07
1.64033e-06
-3.42185e-07
1.65919e-06
5.01502e-07
1.62013e-06
-2.7453e-07
1.61577e-06
1.53163e-07
1.64863e-06
1.11109e-08
1.63738e-06
-1.02794e-07
1.64211e-06
1.37937e-08
1.62737e-06
9.09718e-08
1.62875e-06
1.03739e-07
1.6209e-06
1.55002e-07
1.62532e-06
3.6409e-08
1.62331e-06
1.79481e-07
1.62736e-06
-2.41475e-08
1.62443e-06
1.48307e-07
1.62854e-06
2.72151e-08
1.61853e-06
1.09985e-07
4.87408e-08
1.61119e-06
1.70899e-06
2.86272e-07
1.70611e-06
-2.85768e-07
1.70274e-06
3.52234e-07
1.69266e-06
-3.32106e-07
1.70645e-06
4.87712e-07
1.68377e-06
-2.51842e-07
1.67068e-06
1.66244e-07
1.69957e-06
-1.77735e-08
1.69248e-06
-9.57016e-08
1.69296e-06
1.33131e-08
1.68181e-06
1.02123e-07
1.68097e-06
1.04574e-07
1.67567e-06
1.60305e-07
1.67745e-06
3.46316e-08
1.67742e-06
1.79507e-07
1.67951e-06
-2.62348e-08
1.67951e-06
1.48301e-07
1.68152e-06
2.5212e-08
1.6766e-06
1.14899e-07
5.70834e-08
1.66826e-06
1.76219e-06
2.91929e-07
1.75991e-06
-2.83486e-07
1.75779e-06
3.54354e-07
1.74891e-06
-3.23229e-07
1.75972e-06
4.76909e-07
1.74839e-06
-2.40509e-07
1.73379e-06
1.80835e-07
1.75387e-06
-3.78464e-08
1.75149e-06
-9.33253e-08
1.7488e-06
1.60089e-08
1.74113e-06
1.09792e-07
1.73918e-06
1.06525e-07
1.73507e-06
1.64405e-07
1.73531e-06
3.43967e-08
1.73554e-06
1.79278e-07
1.73602e-06
-2.67157e-08
1.73723e-06
1.47089e-07
1.73783e-06
2.4609e-08
1.7358e-06
1.16933e-07
6.51244e-08
1.72776e-06
1.81868e-06
2.9541e-07
1.8161e-06
-2.80903e-07
1.81601e-06
3.54445e-07
1.8077e-06
-3.14919e-07
1.81698e-06
4.67633e-07
1.81166e-06
-2.35189e-07
1.79985e-06
1.92639e-07
1.81141e-06
-4.94026e-08
1.81107e-06
-9.29907e-08
1.8079e-06
1.91777e-08
1.80255e-06
1.15144e-07
1.80094e-06
1.08139e-07
1.79735e-06
1.67995e-07
1.79678e-06
3.49656e-08
1.79701e-06
1.79044e-07
1.79573e-06
-2.54296e-08
1.79773e-06
1.45084e-07
1.79654e-06
2.57978e-08
1.79652e-06
1.16959e-07
7.301e-08
1.78863e-06
1.87719e-06
2.96369e-07
1.87408e-06
-2.77797e-07
1.87568e-06
3.52842e-07
1.86786e-06
-3.0709e-07
1.87628e-06
4.59208e-07
1.87334e-06
-2.32245e-07
1.86542e-06
2.00554e-07
1.87098e-06
-5.4963e-08
1.87042e-06
-9.24291e-08
1.8679e-06
2.1701e-08
1.86446e-06
1.18581e-07
1.8637e-06
1.089e-07
1.86083e-06
1.70861e-07
1.85981e-06
3.59913e-08
1.86037e-06
1.78487e-07
1.85732e-06
-2.23837e-08
1.85993e-06
1.42476e-07
1.85678e-06
2.89464e-08
1.85797e-06
1.15768e-07
8.08402e-08
1.85014e-06
1.93686e-06
2.95358e-07
1.93341e-06
-2.74353e-07
1.93606e-06
3.502e-07
1.92881e-06
-2.99848e-07
1.93667e-06
4.5135e-07
1.93416e-06
-2.29735e-07
1.92975e-06
2.04961e-07
1.93163e-06
-5.68444e-08
1.93009e-06
-9.08864e-08
1.92805e-06
2.37424e-08
1.92631e-06
1.20319e-07
1.92647e-06
1.08746e-07
1.92462e-06
1.72707e-07
1.92335e-06
3.72627e-08
1.92454e-06
1.77293e-07
1.91994e-06
-1.77834e-08
1.92309e-06
1.3933e-07
1.91811e-06
3.39237e-08
1.91992e-06
1.13957e-07
8.86253e-08
1.91213e-06
1.99754e-06
2.93142e-07
1.99396e-06
-2.7078e-07
1.99717e-06
3.46997e-07
1.99053e-06
-2.93205e-07
1.99799e-06
4.43882e-07
1.99506e-06
-2.26803e-07
1.99347e-06
2.06554e-07
1.99309e-06
-5.64659e-08
1.99073e-06
-8.85227e-08
1.98875e-06
2.57206e-08
1.98836e-06
1.20703e-07
1.98925e-06
1.07861e-07
1.98858e-06
1.7338e-07
1.9871e-06
3.87387e-08
1.98913e-06
1.75261e-07
1.98323e-06
-1.18812e-08
1.98691e-06
1.35651e-07
1.98044e-06
4.03891e-08
1.98249e-06
1.11915e-07
9.62655e-08
1.97485e-06
2.05948e-06
2.90283e-07
2.05586e-06
-2.67155e-07
2.0594e-06
3.43457e-07
2.05323e-06
-2.87038e-07
2.06048e-06
4.36631e-07
2.05683e-06
-2.23152e-07
2.05744e-06
2.05943e-07
2.05553e-06
-5.45571e-08
2.05275e-06
-8.57379e-08
2.05057e-06
2.78959e-08
2.05119e-06
1.20085e-07
2.05248e-06
1.06573e-07
2.05298e-06
1.72881e-07
2.05121e-06
4.05075e-08
2.05415e-06
1.72324e-07
2.0472e-06
-4.93302e-09
2.05137e-06
1.31484e-07
2.04386e-06
4.78915e-08
2.0459e-06
1.09877e-07
1.03574e-07
2.03859e-06
2.12301e-06
2.87082e-07
2.1193e-06
-2.63449e-07
2.12311e-06
3.3965e-07
2.11722e-06
-2.81149e-07
2.12445e-06
4.29403e-07
2.12002e-06
-2.18719e-07
2.12234e-06
2.03617e-07
2.11927e-06
-5.14889e-08
2.11642e-06
-8.28829e-08
2.11393e-06
3.03802e-08
2.11531e-06
1.18708e-07
2.11665e-06
1.05231e-07
2.11821e-06
1.71326e-07
2.11602e-06
4.26945e-08
2.1198e-06
1.68541e-07
2.11207e-06
2.80568e-09
2.1166e-06
1.26945e-07
2.10853e-06
5.59675e-08
2.11041e-06
1.07992e-07
1.10344e-07
2.10364e-06
2.18835e-06
2.83662e-07
2.1845e-06
-2.59592e-07
2.18857e-06
3.35574e-07
2.18275e-06
-2.75326e-07
2.19015e-06
4.22005e-07
2.18495e-06
-2.13523e-07
2.18861e-06
1.99962e-07
2.18459e-06
-4.74709e-08
2.18191e-06
-8.02082e-08
2.17907e-06
3.32208e-08
2.18107e-06
1.16706e-07
2.18221e-06
1.041e-07
2.18463e-06
1.68898e-07
2.18194e-06
4.53913e-08
2.18643e-06
1.64051e-07
2.17815e-06
1.10802e-08
2.18289e-06
1.22206e-07
2.17465e-06
6.42061e-08
2.17628e-06
1.06361e-07
1.16402e-07
2.17023e-06
2.25566e-06
2.80058e-07
2.25158e-06
-2.55509e-07
2.25596e-06
3.31196e-07
2.25002e-06
-2.69387e-07
2.25775e-06
4.14272e-07
2.25183e-06
-2.07599e-07
2.25652e-06
1.95271e-07
2.25168e-06
-4.26337e-08
2.24936e-06
-7.7884e-08
2.24613e-06
3.64457e-08
2.24868e-06
1.14155e-07
2.24945e-06
1.03329e-07
2.25256e-06
1.65796e-07
2.24933e-06
4.86178e-08
2.25434e-06
1.59038e-07
2.24579e-06
1.96379e-08
2.25052e-06
1.17469e-07
2.24246e-06
7.22696e-08
2.24376e-06
1.0506e-07
1.21634e-07
2.23853e-06
2.32504e-06
2.7627e-07
2.32066e-06
-2.51134e-07
2.32538e-06
3.26475e-07
2.31918e-06
-2.63182e-07
2.32737e-06
4.06082e-07
2.32075e-06
-2.0098e-07
2.32627e-06
1.89746e-07
2.3207e-06
-3.70608e-08
2.31884e-06
-7.60175e-08
2.31521e-06
4.00723e-08
2.31825e-06
1.11113e-07
2.31862e-06
1.02961e-07
2.32221e-06
1.62202e-07
2.31852e-06
5.23122e-08
2.32385e-06
1.53709e-07
2.31525e-06
2.82302e-08
2.31977e-06
1.12951e-07
2.31215e-06
7.98947e-08
2.31306e-06
1.04142e-07
1.25989e-07
2.30871e-06
2.39655e-06
2.72286e-07
2.39183e-06
-2.46415e-07
2.39694e-06
3.21361e-07
2.39036e-06
-2.56602e-07
2.39909e-06
3.97357e-07
2.39179e-06
-1.93687e-07
2.39803e-06
1.83508e-07
2.39178e-06
-3.08063e-08
2.39042e-06
-7.46652e-08
2.38639e-06
4.41017e-08
2.38985e-06
1.07653e-07
2.38986e-06
1.02954e-07
2.39377e-06
1.58291e-07
2.38975e-06
5.63345e-08
2.39516e-06
1.48296e-07
2.38677e-06
3.66216e-08
2.39087e-06
1.08851e-07
2.38387e-06
8.68959e-08
2.38438e-06
1.03635e-07
1.29465e-07
2.3809e-06
2.47026e-06
2.6809e-07
2.46515e-06
-2.41305e-07
2.4707e-06
3.15809e-07
2.46368e-06
-2.49574e-07
2.47298e-06
3.88052e-07
2.46502e-06
-1.85726e-07
2.47191e-06
1.7662e-07
2.46501e-06
-2.39103e-08
2.46419e-06
-7.38408e-08
2.45978e-06
4.85114e-08
2.46356e-06
1.0387e-07
2.46331e-06
1.03207e-07
2.46736e-06
1.54237e-07
2.46321e-06
6.04849e-08
2.46848e-06
1.43029e-07
2.46049e-06
4.46061e-08
2.46402e-06
1.05328e-07
2.45774e-06
9.31669e-08
2.45785e-06
1.03532e-07
1.32098e-07
2.45521e-06
2.54625e-06
2.63668e-07
2.54072e-06
-2.35769e-07
2.54675e-06
3.09779e-07
2.53922e-06
-2.42047e-07
2.54913e-06
3.78144e-07
2.5405e-06
-1.77098e-07
2.54801e-06
1.69111e-07
2.54051e-06
-1.64108e-08
2.54019e-06
-7.35223e-08
2.53545e-06
5.32483e-08
2.53943e-06
9.98887e-08
2.53906e-06
1.03579e-07
2.54307e-06
1.50231e-07
2.53903e-06
6.45295e-08
2.54392e-06
1.38131e-07
2.53651e-06
5.20193e-08
2.53937e-06
1.02469e-07
2.53385e-06
9.86859e-08
2.53358e-06
1.03799e-07
1.33947e-07
2.53173e-06
2.62458e-06
2.59009e-07
2.61859e-06
-2.29778e-07
2.62513e-06
3.03237e-07
2.61708e-06
-2.3399e-07
2.6276e-06
3.6762e-07
2.6183e-06
-1.67801e-07
2.62641e-06
1.61002e-07
2.61835e-06
-8.35344e-09
2.61849e-06
-7.36584e-08
2.61351e-06
5.82261e-08
2.61754e-06
9.58583e-08
2.61723e-06
1.03894e-07
2.62098e-06
1.46477e-07
2.61728e-06
6.82328e-08
2.62162e-06
1.33794e-07
2.61487e-06
5.87627e-08
2.61707e-06
1.0027e-07
2.61226e-06
1.03499e-07
2.61167e-06
1.04387e-07
1.35082e-07
2.61054e-06
2.70532e-06
2.54103e-07
2.69885e-06
-2.23309e-07
2.70593e-06
2.96154e-07
2.69732e-06
-2.25381e-07
2.70847e-06
3.56474e-07
2.69851e-06
-1.5784e-07
2.70719e-06
1.5232e-07
2.69863e-06
2.02628e-10
2.69915e-06
-7.41715e-08
2.69405e-06
6.3326e-08
2.69795e-06
9.19544e-08
2.69789e-06
1.03957e-07
2.70118e-06
1.43186e-07
2.69802e-06
7.139e-08
2.70167e-06
1.30147e-07
2.69561e-06
6.48201e-08
2.69724e-06
9.86415e-08
2.69305e-06
1.07691e-07
2.69219e-06
1.05245e-07
1.3558e-07
2.69169e-06
2.78854e-06
2.48942e-07
2.78157e-06
-2.16344e-07
2.78922e-06
2.88509e-07
2.78004e-06
-2.16208e-07
2.79181e-06
3.4471e-07
2.7812e-06
-1.47232e-07
2.79041e-06
1.43106e-07
2.78144e-06
9.18038e-09
2.78222e-06
-7.49585e-08
2.77715e-06
6.83994e-08
2.78073e-06
8.83699e-08
2.78112e-06
1.03572e-07
2.78377e-06
1.40533e-07
2.78127e-06
7.38868e-08
2.78421e-06
1.27215e-07
2.77876e-06
7.027e-08
2.77996e-06
9.74442e-08
2.77631e-06
1.11338e-07
2.77522e-06
1.06335e-07
1.35521e-07
2.77528e-06
2.87431e-06
2.4352e-07
2.86683e-06
-2.08866e-07
2.87506e-06
2.80284e-07
2.86531e-06
-2.06467e-07
2.87768e-06
3.32339e-07
2.86646e-06
-1.36007e-07
2.87614e-06
1.33421e-07
2.86684e-06
1.84818e-08
2.86778e-06
-7.58918e-08
2.8629e-06
7.32723e-08
2.86596e-06
8.53096e-08
2.86698e-06
1.02558e-07
2.86887e-06
1.38638e-07
2.86704e-06
7.57169e-08
2.86938e-06
1.24882e-07
2.86436e-06
7.52816e-08
2.86527e-06
9.65342e-08
2.86213e-06
1.14478e-07
2.86083e-06
1.07636e-07
1.34991e-07
2.86136e-06
2.96271e-06
2.37835e-07
2.95471e-06
-2.00865e-07
2.96352e-06
2.7147e-07
2.95322e-06
-1.96161e-07
2.96617e-06
3.19387e-07
2.95438e-06
-1.24213e-07
2.96445e-06
1.23345e-07
2.95495e-06
2.79861e-08
2.95588e-06
-7.68191e-08
2.9514e-06
7.77519e-08
2.95374e-06
8.29715e-08
2.95551e-06
1.00779e-07
2.95662e-06
1.37532e-07
2.95535e-06
7.69908e-08
2.95729e-06
1.22936e-07
2.95251e-06
8.00594e-08
2.95325e-06
9.57983e-08
2.95061e-06
1.17115e-07
2.94912e-06
1.09131e-07
1.34084e-07
2.95003e-06
3.05382e-06
2.31883e-07
3.04529e-06
-1.92334e-07
3.0547e-06
2.62063e-07
3.04385e-06
-1.85306e-07
3.05734e-06
3.05893e-07
3.04504e-06
-1.11918e-07
3.05541e-06
1.12979e-07
3.04585e-06
3.75507e-08
3.0466e-06
-7.75696e-08
3.04271e-06
8.1639e-08
3.04415e-06
8.15312e-08
3.04676e-06
9.8164e-08
3.04714e-06
1.37152e-07
3.04622e-06
7.79148e-08
3.04804e-06
1.21119e-07
3.04331e-06
8.47819e-08
3.04393e-06
9.51832e-08
3.04183e-06
1.19214e-07
3.04016e-06
1.10801e-07
1.32898e-07
3.04135e-06
3.14773e-06
2.25665e-07
3.13867e-06
-1.8327e-07
3.14866e-06
2.52068e-07
3.13728e-06
-1.73928e-07
3.15126e-06
2.91913e-07
3.13855e-06
-9.92081e-08
3.14909e-06
1.02446e-07
3.13962e-06
4.7013e-08
3.14001e-06
-7.79596e-08
3.13691e-06
8.47449e-08
3.13733e-06
8.11137e-08
3.14076e-06
9.47337e-08
3.14058e-06
1.37332e-07
3.13973e-06
7.87607e-08
3.14167e-06
1.19183e-07
3.1369e-06
8.95492e-08
3.13737e-06
9.47127e-08
3.13586e-06
1.20722e-07
3.13405e-06
1.1261e-07
1.31534e-07
3.13542e-06
3.24451e-06
2.19183e-07
3.23492e-06
-1.73679e-07
3.24548e-06
2.41502e-07
3.23362e-06
-1.62069e-07
3.24802e-06
2.77519e-07
3.235e-06
-8.61894e-08
3.24556e-06
9.18874e-08
3.23638e-06
5.61927e-08
3.23622e-06
-7.7799e-08
3.23406e-06
8.6904e-08
3.23339e-06
8.17828e-08
3.23752e-06
9.06015e-08
3.23703e-06
1.37819e-07
3.23598e-06
7.982e-08
3.23822e-06
1.16938e-07
3.23341e-06
9.43634e-08
3.23364e-06
9.44773e-08
3.23277e-06
1.21592e-07
3.23088e-06
1.145e-07
1.30094e-07
3.23232e-06
3.34425e-06
2.12442e-07
3.33414e-06
-1.63571e-07
3.34525e-06
2.30393e-07
3.33297e-06
-1.49786e-07
3.34768e-06
2.62801e-07
3.33448e-06
-7.29883e-08
3.34491e-06
8.14635e-08
3.3362e-06
6.48984e-08
3.33531e-06
-7.69035e-08
3.33422e-06
8.79893e-08
3.33248e-06
8.35257e-08
3.33711e-06
8.59723e-08
3.33661e-06
1.38314e-07
3.33508e-06
8.13562e-08
3.33774e-06
1.14272e-07
3.33296e-06
9.91476e-08
3.33284e-06
9.45931e-08
3.33263e-06
1.21808e-07
3.33074e-06
1.16382e-07
1.28669e-07
3.33217e-06
3.44704e-06
2.05448e-07
3.43643e-06
-1.52967e-07
3.44804e-06
2.18782e-07
3.43541e-06
-1.37151e-07
3.45034e-06
2.47867e-07
3.4371e-06
-5.9751e-08
3.44722e-06
7.13497e-08
3.43918e-06
7.29361e-08
3.43738e-06
-7.51086e-08
3.43745e-06
8.79288e-08
3.43473e-06
8.62391e-08
3.43958e-06
8.11216e-08
3.43937e-06
1.38523e-07
3.43718e-06
8.35481e-08
3.44027e-06
1.11189e-07
3.43566e-06
1.03748e-07
3.43508e-06
9.51822e-08
3.43549e-06
1.21391e-07
3.43372e-06
1.18152e-07
1.27335e-07
3.43506e-06
3.55296e-06
1.98213e-07
3.54189e-06
-1.41894e-07
3.55395e-06
2.06726e-07
3.54105e-06
-1.24253e-07
3.55607e-06
2.32842e-07
3.54296e-06
-4.66403e-08
3.55258e-06
6.17295e-08
3.5454e-06
8.01225e-08
3.54257e-06
-7.22856e-08
3.54377e-06
8.67318e-08
3.54029e-06
8.97222e-08
3.54505e-06
7.63604e-08
3.54537e-06
1.382e-07
3.54244e-06
8.64775e-08
3.54585e-06
1.07783e-07
3.54162e-06
1.07975e-07
3.54047e-06
9.63329e-08
3.54144e-06
1.2042e-07
3.5399e-06
1.19693e-07
1.26141e-07
3.5411e-06
3.66212e-06
1.9075e-07
3.65062e-06
-1.30392e-07
3.66305e-06
1.94299e-07
3.65e-06
-1.11201e-07
3.66497e-06
2.17868e-07
3.65217e-06
-3.38356e-08
3.66111e-06
5.27897e-08
3.65493e-06
8.62967e-08
3.65101e-06
-6.83622e-08
3.65323e-06
8.45099e-08
3.64925e-06
9.36993e-08
3.65363e-06
7.19817e-08
3.65466e-06
1.37175e-07
3.651e-06
9.01335e-08
3.65456e-06
1.04224e-07
3.65092e-06
1.11617e-07
3.64916e-06
9.80935e-08
3.65056e-06
1.19017e-07
3.64936e-06
1.20889e-07
1.25105e-07
3.6504e-06
3.77461e-06
1.8308e-07
3.76273e-06
-1.18511e-07
3.77544e-06
1.8159e-07
3.76236e-06
-9.81182e-08
3.77712e-06
2.03103e-07
3.76481e-06
-2.15254e-08
3.77289e-06
4.47095e-08
3.76786e-06
9.13325e-08
3.76284e-06
-6.33456e-08
3.76589e-06
8.14635e-08
3.76171e-06
9.78772e-08
3.76547e-06
6.82214e-08
3.76728e-06
1.35367e-07
3.76299e-06
9.44165e-08
3.76649e-06
1.00726e-07
3.76362e-06
1.1449e-07
3.76128e-06
1.00435e-07
3.76293e-06
1.17363e-07
3.76219e-06
1.21634e-07
1.24212e-07
3.76308e-06
3.89053e-06
1.75224e-07
3.87833e-06
-1.06313e-07
3.89121e-06
1.68708e-07
3.87824e-06
-8.5146e-08
3.89263e-06
1.88712e-07
3.881e-06
-9.89933e-09
3.88807e-06
3.76485e-08
3.88423e-06
9.51692e-08
3.87823e-06
-5.73448e-08
3.88184e-06
7.78547e-08
3.87773e-06
1.01986e-07
3.8807e-06
6.52488e-08
3.8833e-06
1.32771e-07
3.87856e-06
9.91589e-08
3.88174e-06
9.75365e-08
3.87981e-06
1.16428e-07
3.87697e-06
1.03273e-07
3.87867e-06
1.1566e-07
3.87845e-06
1.21853e-07
1.23413e-07
3.87925e-06
4.00997e-06
1.67212e-07
3.99753e-06
-9.38744e-08
4.01046e-06
1.55777e-07
3.99775e-06
-7.244e-08
4.0116e-06
1.74867e-07
4.00084e-06
8.58997e-10
4.00675e-06
3.17367e-08
4.0041e-06
9.78217e-08
3.9973e-06
-5.05452e-08
4.00121e-06
7.39483e-08
3.99737e-06
1.05819e-07
3.99947e-06
6.31486e-08
4.00279e-06
1.29452e-07
3.9978e-06
1.04153e-07
4.00044e-06
9.48959e-08
3.99955e-06
1.17314e-07
3.99635e-06
1.06478e-07
3.99791e-06
1.14099e-07
3.99824e-06
1.21524e-07
1.22629e-07
3.99902e-06
4.13304e-06
1.59077e-07
4.12045e-06
-8.12818e-08
4.13328e-06
1.42942e-07
4.12101e-06
-6.01703e-08
4.13414e-06
1.61741e-07
4.12441e-06
1.05859e-08
4.1291e-06
2.70501e-08
4.12754e-06
9.93841e-08
4.12016e-06
-4.31651e-08
4.12414e-06
6.99639e-08
4.12071e-06
1.09247e-07
4.12192e-06
6.1947e-08
4.12586e-06
1.25503e-07
4.12082e-06
1.09198e-07
4.12274e-06
9.2978e-08
4.12291e-06
1.17142e-07
4.11954e-06
1.09843e-07
4.12079e-06
1.12852e-07
4.12164e-06
1.20675e-07
1.21767e-07
4.1225e-06
4.25985e-06
1.50857e-07
4.24721e-06
-6.86362e-08
4.25979e-06
1.30364e-07
4.24813e-06
-4.85184e-08
4.26038e-06
1.49496e-07
4.25181e-06
1.91508e-08
4.25526e-06
2.3599e-08
4.25463e-06
1.00023e-07
4.24689e-06
-3.54326e-08
4.2508e-06
6.60586e-08
4.24783e-06
1.1222e-07
4.24817e-06
6.16071e-08
4.25261e-06
1.21056e-07
4.24773e-06
1.14085e-07
4.24879e-06
9.19112e-08
4.24995e-06
1.15985e-07
4.24666e-06
1.1313e-07
4.24746e-06
1.12058e-07
4.24875e-06
1.1938e-07
1.20732e-07
4.24979e-06
4.39051e-06
1.42597e-07
4.37793e-06
-5.60502e-08
4.39007e-06
1.18222e-07
4.37922e-06
-3.7672e-08
4.39045e-06
1.38274e-07
4.38311e-06
2.64914e-08
4.3854e-06
2.13029e-08
4.38548e-06
9.99432e-08
4.37759e-06
-2.75395e-08
4.38132e-06
6.23269e-08
4.37882e-06
1.14716e-07
4.37833e-06
6.2099e-08
4.38315e-06
1.1624e-07
4.37863e-06
1.18602e-07
4.37876e-06
9.17836e-08
4.38076e-06
1.13984e-07
4.3778e-06
1.16094e-07
4.37807e-06
1.11782e-07
4.37969e-06
1.1776e-07
1.19437e-07
4.38099e-06
4.52514e-06
1.34344e-07
4.51274e-06
-4.36477e-08
4.52425e-06
1.06707e-07
4.5144e-06
-2.78188e-08
4.52449e-06
1.28188e-07
4.51834e-06
3.26358e-08
4.51966e-06
1.99864e-08
4.52024e-06
9.93606e-08
4.51232e-06
-1.96213e-08
4.51584e-06
5.88089e-08
4.51382e-06
1.16733e-07
4.51254e-06
6.3386e-08
4.51759e-06
1.1119e-07
4.51365e-06
1.22542e-07
4.51279e-06
9.26399e-08
4.51544e-06
1.11336e-07
4.51304e-06
1.18493e-07
4.51279e-06
1.12027e-07
4.51458e-06
1.15971e-07
1.17821e-07
4.5162e-06
4.66385e-06
1.2615e-07
4.65176e-06
-3.15619e-08
4.66245e-06
9.60255e-08
4.65377e-06
-1.91408e-08
4.66265e-06
1.19303e-07
4.65759e-06
3.76955e-08
4.65816e-06
1.94189e-08
4.65906e-06
9.84646e-08
4.65119e-06
-1.17573e-08
4.65448e-06
5.55213e-08
4.65296e-06
1.1825e-07
4.6509e-06
6.54486e-08
4.65605e-06
1.06037e-07
4.65288e-06
1.25718e-07
4.65105e-06
9.44633e-08
4.6541e-06
1.08291e-07
4.65247e-06
1.20118e-07
4.65177e-06
1.12726e-07
4.65356e-06
1.14184e-07
1.15854e-07
4.65553e-06
4.80677e-06
1.1807e-07
4.79514e-06
-1.99329e-08
4.80478e-06
8.63879e-08
4.79744e-06
-1.18e-08
4.80512e-06
1.11625e-07
4.80097e-06
4.1839e-08
4.80102e-06
1.93724e-08
4.80211e-06
9.73759e-08
4.7943e-06
-3.94713e-09
4.79736e-06
5.2458e-08
4.79638e-06
1.19234e-07
4.79357e-06
6.82596e-08
4.79867e-06
1.00929e-07
4.7964e-06
1.27989e-07
4.79373e-06
9.71326e-08
4.79687e-06
1.05155e-07
4.79618e-06
1.2081e-07
4.79516e-06
1.13744e-07
4.79677e-06
1.12571e-07
1.13548e-07
4.79908e-06
4.95403e-06
1.10161e-07
4.943e-06
-8.90261e-09
4.95138e-06
7.80085e-08
4.9455e-06
-5.92539e-09
4.95205e-06
1.05074e-07
4.94861e-06
4.52822e-08
4.94833e-06
1.9653e-08
4.94955e-06
9.61537e-08
4.94177e-06
3.83682e-09
4.94459e-06
4.96381e-08
4.94419e-06
1.19629e-07
4.9407e-06
7.17492e-08
4.94557e-06
9.60642e-08
4.94432e-06
1.29231e-07
4.94099e-06
1.00467e-07
4.9439e-06
1.02244e-07
4.94423e-06
1.20479e-07
4.94307e-06
1.14902e-07
4.94438e-06
1.11267e-07
1.10971e-07
4.94696e-06
5.10576e-06
1.02478e-07
5.09546e-06
1.38896e-09
5.1024e-06
7.10736e-08
5.09805e-06
-1.5753e-09
5.10365e-06
9.94762e-08
5.10066e-06
4.8271e-08
5.10018e-06
2.01265e-08
5.10154e-06
9.4797e-08
5.09377e-06
1.16124e-08
5.09625e-06
4.71523e-08
5.09655e-06
1.1933e-07
5.09247e-06
7.58267e-08
5.09687e-06
9.16706e-08
5.09674e-06
1.29356e-07
5.09298e-06
1.0423e-07
5.09539e-06
9.98361e-08
5.09669e-06
1.19174e-07
5.09566e-06
1.15931e-07
5.09655e-06
1.10377e-07
1.0824e-07
5.09928e-06
5.2621e-06
9.50751e-08
5.25268e-06
1.08128e-08
5.25811e-06
6.56463e-08
5.25516e-06
1.36722e-09
5.26005e-06
9.45895e-08
5.25729e-06
5.1027e-08
5.25668e-06
2.07382e-08
5.25823e-06
9.32523e-08
5.25047e-06
1.93708e-08
5.25248e-06
4.51395e-08
5.25355e-06
1.18263e-07
5.24907e-06
8.0307e-08
5.25274e-06
8.79989e-08
5.25373e-06
1.28368e-07
5.24984e-06
1.08118e-07
5.25154e-06
9.81391e-08
5.25364e-06
1.17071e-07
5.25303e-06
1.16538e-07
5.25347e-06
1.09936e-07
1.05517e-07
5.2562e-06
5.42321e-06
8.80003e-08
5.41477e-06
1.9257e-08
5.41875e-06
6.16579e-08
5.41692e-06
3.20316e-09
5.42139e-06
9.01201e-08
5.4187e-06
5.37167e-08
5.41794e-06
2.14986e-08
5.41974e-06
9.14546e-08
5.41204e-06
2.70688e-08
5.41343e-06
4.37432e-08
5.41529e-06
1.1641e-07
5.41063e-06
8.49672e-08
5.4134e-06
8.52229e-08
5.41537e-06
1.26399e-07
5.41168e-06
1.11807e-07
5.41259e-06
9.72322e-08
5.41522e-06
1.14437e-07
5.41525e-06
1.16515e-07
5.41532e-06
1.09865e-07
1.02981e-07
5.41785e-06
5.58924e-06
8.12954e-08
5.58186e-06
2.66296e-08
5.58453e-06
5.89937e-08
5.58343e-06
4.29713e-09
5.58778e-06
8.5774e-08
5.58507e-06
5.64325e-08
5.58409e-06
2.24757e-08
5.5862e-06
8.93442e-08
5.57864e-06
3.46231e-08
5.5793e-06
4.30922e-08
5.58187e-06
1.13838e-07
5.57729e-06
8.95406e-08
5.57908e-06
8.34347e-08
5.5818e-06
1.23684e-07
5.5786e-06
1.15e-07
5.57877e-06
9.70689e-08
5.58161e-06
1.116e-07
5.58238e-06
1.15739e-07
5.58225e-06
1.09996e-07
1.008e-07
5.58443e-06
5.76034e-06
7.49948e-08
5.75411e-06
3.28633e-08
5.75559e-06
5.75126e-08
5.75487e-06
5.01722e-09
5.75934e-06
8.1305e-08
5.75658e-06
5.9186e-08
5.75529e-06
2.37693e-08
5.75772e-06
8.69183e-08
5.75046e-06
4.18771e-08
5.75025e-06
4.33004e-08
5.75341e-06
1.1068e-07
5.74918e-06
9.37697e-08
5.75e-06
8.26221e-08
5.75319e-06
1.20495e-07
5.75068e-06
1.1751e-07
5.75024e-06
9.7505e-08
5.75301e-06
1.08829e-07
5.75455e-06
1.14196e-07
5.75442e-06
1.10127e-07
9.90996e-08
5.75612e-06
5.93669e-06
6.91245e-08
5.93163e-06
3.79187e-08
5.93209e-06
5.70545e-08
5.93141e-06
5.70168e-09
5.93616e-06
7.6555e-08
5.93344e-06
6.1899e-08
5.93172e-06
2.54906e-08
5.93441e-06
8.42364e-08
5.92765e-06
4.86335e-08
5.92653e-06
4.4423e-08
5.93006e-06
1.07145e-07
5.92642e-06
9.74094e-08
5.92633e-06
8.27142e-08
5.92977e-06
1.17056e-07
5.92799e-06
1.19288e-07
5.92714e-06
9.83569e-08
5.9297e-06
1.0627e-07
5.93189e-06
1.12e-07
5.93197e-06
1.10053e-07
9.79409e-08
5.93313e-06
6.11845e-06
6.37007e-08
6.11458e-06
4.17875e-08
6.1142e-06
5.74404e-08
6.11324e-06
6.65517e-09
6.11834e-06
7.14625e-08
6.11583e-06
6.4407e-08
6.11358e-06
2.77401e-08
6.1164e-06
8.14123e-08
6.11032e-06
5.47146e-08
6.10834e-06
4.64067e-08
6.11199e-06
1.03494e-07
6.10909e-06
1.00309e-07
6.10828e-06
8.35242e-08
6.11174e-06
1.13592e-07
6.11067e-06
1.20359e-07
6.10963e-06
9.93972e-08
6.11183e-06
1.04073e-07
6.11454e-06
1.09287e-07
6.11501e-06
1.09588e-07
9.73163e-08
6.11563e-06
6.30581e-06
5.87289e-08
6.3031e-06
4.44909e-08
6.30206e-06
5.84885e-08
6.3006e-06
8.10926e-09
6.306e-06
6.60688e-08
6.3039e-06
6.65041e-08
6.30106e-06
3.05741e-08
6.30388e-06
7.85979e-08
6.29859e-06
5.99999e-08
6.29591e-06
4.90909e-08
6.2994e-06
1.00004e-07
6.29731e-06
1.02394e-07
6.29602e-06
8.48212e-08
6.29931e-06
1.10298e-07
6.29891e-06
1.20761e-07
6.29787e-06
1.00436e-07
6.29959e-06
1.02351e-07
6.30265e-06
1.06225e-07
6.30368e-06
1.08565e-07
9.71521e-08
6.30384e-06
6.49894e-06
5.42036e-08
6.49733e-06
4.61029e-08
6.49582e-06
5.99916e-08
6.49373e-06
1.02028e-08
6.49928e-06
6.05212e-08
6.49781e-06
6.79742e-08
6.49439e-06
3.39941e-08
6.49702e-06
7.5963e-08
6.49259e-06
6.44269e-08
6.48941e-06
5.22716e-08
6.49252e-06
9.68955e-08
6.49123e-06
1.03687e-07
6.48968e-06
8.63695e-08
6.49268e-06
1.07294e-07
6.49289e-06
1.20551e-07
6.49195e-06
1.01379e-07
6.49322e-06
1.01086e-07
6.49637e-06
1.0307e-07
6.49809e-06
1.06841e-07
9.73032e-08
6.49794e-06
6.69803e-06
5.01085e-08
6.69736e-06
4.6777e-08
6.69565e-06
6.16995e-08
6.69287e-06
1.29808e-08
6.69834e-06
5.50518e-08
6.69768e-06
6.86346e-08
6.69378e-06
3.78966e-08
6.69602e-06
7.3724e-08
6.69247e-06
6.79718e-08
6.68899e-06
5.57513e-08
6.69162e-06
9.42641e-08
6.691e-06
1.04309e-07
6.68936e-06
8.80125e-08
6.69211e-06
1.04545e-07
6.6928e-06
1.19858e-07
6.69203e-06
1.02144e-07
6.69294e-06
1.00186e-07
6.69589e-06
1.00115e-07
6.69837e-06
1.04356e-07
9.75509e-08
6.69813e-06
6.90328e-06
4.64169e-08
6.90335e-06
4.67124e-08
6.90169e-06
6.33526e-08
6.89826e-06
1.64165e-08
6.90338e-06
4.99255e-08
6.90363e-06
6.83914e-08
6.89945e-06
4.20739e-08
6.90111e-06
7.20664e-08
6.89836e-06
7.07222e-08
6.8948e-06
5.93056e-08
6.89695e-06
9.21167e-08
6.8968e-06
1.04456e-07
6.89521e-06
8.96062e-08
6.89776e-06
1.01997e-07
6.89881e-06
1.18806e-07
6.89832e-06
1.02637e-07
6.89895e-06
9.9553e-08
6.90143e-06
9.76346e-08
6.90463e-06
1.01156e-07
9.76069e-08
6.90458e-06
7.11489e-06
4.30937e-08
7.11549e-06
4.61037e-08
7.11411e-06
6.47338e-08
7.11011e-06
2.04234e-08
7.11462e-06
4.54137e-08
7.11577e-06
6.7236e-08
7.11159e-06
4.62553e-08
7.11254e-06
7.11151e-08
7.11043e-06
7.28379e-08
7.10699e-06
6.27449e-08
7.1087e-06
9.04065e-08
7.10888e-06
1.04277e-07
7.1074e-06
9.10848e-08
7.10978e-06
9.96121e-08
7.11115e-06
1.17439e-07
7.11095e-06
1.02834e-07
7.11147e-06
9.90349e-08
7.1133e-06
9.58077e-08
7.117e-06
9.74549e-08
9.71647e-08
7.11744e-06
7.33304e-06
4.00976e-08
7.33401e-06
4.5132e-08
7.33307e-06
6.56729e-08
7.32862e-06
2.48733e-08
7.33227e-06
4.17656e-08
7.33427e-06
6.5241e-08
7.33038e-06
5.01416e-08
7.33058e-06
7.09195e-08
7.32888e-06
7.45327e-08
7.32572e-06
6.59092e-08
7.32704e-06
8.9083e-08
7.32747e-06
1.0385e-07
7.32611e-06
9.24404e-08
7.32833e-06
9.73954e-08
7.33004e-06
1.15734e-07
7.33009e-06
1.02782e-07
7.3307e-06
9.8418e-08
7.33182e-06
9.46903e-08
7.33569e-06
9.35883e-08
9.60002e-08
7.33685e-06
7.55796e-06
3.73835e-08
7.55913e-06
4.39609e-08
7.55875e-06
6.60502e-08
7.55402e-06
2.9606e-08
7.55662e-06
3.91635e-08
7.55929e-06
6.25739e-08
7.55598e-06
5.34489e-08
7.55546e-06
7.14352e-08
7.55396e-06
7.60324e-08
7.55114e-06
6.87353e-08
7.55218e-06
8.80398e-08
7.55283e-06
1.03197e-07
7.55155e-06
9.37297e-08
7.55358e-06
9.53567e-08
7.55563e-06
1.13684e-07
7.55591e-06
1.02505e-07
7.55681e-06
9.7523e-08
7.55729e-06
9.42107e-08
7.56099e-06
8.98887e-08
9.40468e-08
7.56294e-06
7.78984e-06
3.49049e-08
7.79107e-06
4.27312e-08
7.79131e-06
6.58047e-08
7.78648e-06
3.44374e-08
7.78795e-06
3.76894e-08
7.79103e-06
5.94947e-08
7.78852e-06
5.59586e-08
7.78746e-06
7.25037e-08
7.78594e-06
7.75522e-08
7.78343e-06
7.12417e-08
7.78432e-06
8.71515e-08
7.78519e-06
1.02324e-07
7.78393e-06
9.49951e-08
7.78578e-06
9.35055e-08
7.7881e-06
1.11357e-07
7.78862e-06
1.01985e-07
7.78991e-06
9.62408e-08
7.78995e-06
9.41611e-08
7.79321e-06
8.66378e-08
9.13979e-08
7.79585e-06
8.02889e-06
3.26183e-08
8.03006e-06
4.1559e-08
8.03094e-06
6.49317e-08
8.0262e-06
3.91707e-08
8.02656e-06
3.73365e-08
8.02974e-06
5.63148e-08
8.02815e-06
5.75444e-08
8.02678e-06
7.38769e-08
8.02509e-06
7.92396e-08
8.02281e-06
7.35214e-08
8.02363e-06
8.63343e-08
8.02474e-06
1.01212e-07
8.02352e-06
9.62108e-08
8.02514e-06
9.18926e-08
8.02764e-06
1.08857e-07
8.02839e-06
1.01236e-07
8.03011e-06
9.4513e-08
8.03007e-06
9.42051e-08
8.03264e-06
8.40647e-08
8.82355e-08
8.03581e-06
8.27533e-06
3.04851e-08
8.27636e-06
4.05297e-08
8.27779e-06
6.35036e-08
8.27338e-06
4.35867e-08
8.27268e-06
3.80277e-08
8.27565e-06
5.33455e-08
8.27501e-06
5.81887e-08
8.27362e-06
7.52637e-08
8.27172e-06
8.11467e-08
8.26953e-06
7.57096e-08
8.27029e-06
8.55732e-08
8.2717e-06
9.98039e-08
8.2706e-06
9.73039e-08
8.2719e-06
9.05924e-08
8.27451e-06
1.06251e-07
8.27536e-06
1.0039e-07
8.27757e-06
9.22959e-08
8.27773e-06
9.40489e-08
8.27956e-06
8.22365e-08
8.4767e-08
8.28303e-06
8.52938e-06
2.84746e-08
8.53021e-06
3.96991e-08
8.53208e-06
6.16382e-08
8.52819e-06
4.74798e-08
8.52659e-06
3.96218e-08
8.52907e-06
5.08704e-08
8.52928e-06
5.7976e-08
8.52818e-06
7.63668e-08
8.52607e-06
8.32513e-08
8.52386e-06
7.79214e-08
8.5245e-06
8.49346e-08
8.52628e-06
9.80224e-08
8.52539e-06
9.81909e-08
8.52633e-06
8.96578e-08
8.52903e-06
1.03547e-07
8.52977e-06
9.96535e-08
8.53244e-06
8.9627e-08
8.53307e-06
9.34198e-08
8.5342e-06
8.1105e-08
8.12118e-08
8.53775e-06
8.79126e-06
2.65652e-08
8.79187e-06
3.90936e-08
8.79404e-06
5.94689e-08
8.79083e-06
5.06904e-08
8.78852e-06
4.19297e-08
8.79029e-06
4.91045e-08
8.79118e-06
5.70789e-08
8.7906e-06
7.695e-08
8.78842e-06
8.54351e-08
8.78609e-06
8.02479e-08
8.78651e-06
8.45111e-08
8.78868e-06
9.58612e-08
8.78813e-06
9.87323e-08
8.78868e-06
8.91132e-08
8.7915e-06
1.00726e-07
8.79198e-06
9.917e-08
8.79484e-06
8.67668e-08
8.79629e-06
9.19693e-08
8.79682e-06
8.05752e-08
7.78001e-08
8.80024e-06
9.0612e-06
2.47462e-08
9.06159e-06
3.87069e-08
9.06391e-06
5.71466e-08
9.06151e-06
5.30952e-08
9.0587e-06
4.47381e-08
9.05963e-06
4.81773e-08
9.06096e-06
5.57483e-08
9.06106e-06
7.68526e-08
9.05899e-06
8.75008e-08
9.0565e-06
8.27339e-08
9.05662e-06
8.43978e-08
9.05904e-06
9.34335e-08
9.05906e-06
9.8716e-08
9.05921e-06
8.89633e-08
9.06215e-06
9.77827e-08
9.06244e-06
9.88871e-08
9.06503e-06
8.41767e-08
9.06754e-06
8.94594e-08
9.06769e-06
8.04271e-08
7.47593e-08
9.07073e-06
9.33944e-06
2.3017e-08
9.33965e-06
3.84991e-08
9.34196e-06
5.48336e-08
9.34044e-06
5.462e-08
9.33736e-06
4.78108e-08
9.33739e-06
4.81499e-08
9.33887e-06
5.42662e-08
9.33972e-06
7.60031e-08
9.33801e-06
8.921e-08
9.33538e-06
8.53641e-08
9.3351e-06
8.4678e-08
9.33759e-06
9.09421e-08
9.33838e-06
9.79314e-08
9.3382e-06
8.91384e-08
9.34119e-06
9.47987e-08
9.34153e-06
9.85475e-08
9.34339e-06
8.23112e-08
9.34687e-06
8.59822e-08
9.34702e-06
8.02753e-08
7.2266e-08
9.34952e-06
9.62622e-06
2.13859e-08
9.6263e-06
3.84145e-08
9.62847e-06
5.26671e-08
9.62782e-06
5.52668e-08
9.62473e-06
5.09031e-08
9.62389e-06
4.89924e-08
9.62523e-06
5.29225e-08
9.6268e-06
7.44378e-08
9.62568e-06
9.03263e-08
9.62299e-06
8.80546e-08
9.62228e-06
8.53924e-08
9.62461e-06
8.86136e-08
9.62623e-06
9.63024e-08
9.62595e-06
8.94221e-08
9.6288e-06
9.19458e-08
9.62953e-06
9.78246e-08
9.63045e-06
8.13902e-08