/*--------------------------------*- C++ -*----------------------------------*\
| =========                 |                                                 |
| \\      /  F ield         | OpenFOAM: The Open Source CFD Toolbox           |
|  \\    /   O peration     | Version:  v2012                                 |
|   \\  /    A nd           | Website:  www.openfoam.com                      |
|    \\/     M anipulation  |                                                 |
\*---------------------------------------------------------------------------*/
FoamFile
{
    version     2.0;
    format      ascii;
    class       volVectorField;
    location    "0.3";
    object      U;
}
// * * * * * * * * * * * * * * * * * * * * * * * * * * * * * * * * * * * * * //

dimensions      [0 1 -1 0 0 0 0];


internalField   nonuniform List<vector> 
8000
(
(0.897004 0.00279633 0)
(1.0971 -0.0033403 0)
(0.906628 0.00416494 0)
(1.08353 -0.00495452 0)
(0.902268 0.00805951 0)
(1.10508 -0.00639018 0)
(0.841101 0.00279658 0)
(1.10358 0.00160751 0)
(0.890105 -0.00257299 0)
(1.07641 0.000456448 0)
(0.900835 0.001343 0)
(1.05767 0.00251508 0)
(0.898165 0.0038932 0)
(1.05103 0.0012863 0)
(0.899978 0.00591912 0)
(1.05479 -0.000677594 0)
(0.896586 0.00544141 0)
(1.05522 0.00156019 0)
(0.892679 0.00330053 0)
(1.04725 0.00171116 0)
(0.907829 0.00276779 0)
(1.08272 -0.00324514 0)
(0.916922 0.00411789 0)
(1.06744 -0.00467832 0)
(0.913237 0.00749015 0)
(1.08359 -0.00520176 0)
(0.861675 0.0026115 0)
(1.07496 0.00109429 0)
(0.915003 -0.00238886 0)
(1.04882 0.000476311 0)
(0.928589 0.00160305 0)
(1.02669 0.00271576 0)
(0.932712 0.00398215 0)
(1.01273 0.00135093 0)
(0.942137 0.00574823 0)
(1.00684 -0.000637755 0)
(0.949106 0.00567617 0)
(0.995872 0.00148664 0)
(0.958937 0.00444212 0)
(0.975953 0.00168951 0)
(0.926884 0.00278353 0)
(1.0608 -0.00317589 0)
(0.935284 0.00412571 0)
(1.04538 -0.00450343 0)
(0.93213 0.00714578 0)
(1.05638 -0.00442594 0)
(0.897804 0.00245527 0)
(1.03705 0.000487697 0)
(0.949277 -0.00211932 0)
(1.01611 0.000335668 0)
(0.958318 0.00198422 0)
(0.997642 0.00266277 0)
(0.960375 0.0042067 0)
(0.987032 0.00113446 0)
(0.966096 0.00585215 0)
(0.985531 -0.000761817 0)
(0.969751 0.00564618 0)
(0.981299 0.00125258 0)
(0.974413 0.0047823 0)
(0.97335 0.00224447 0)
(0.948597 0.00284007 0)
(1.03876 -0.00313989 0)
(0.95566 0.00416809 0)
(1.02585 -0.00436832 0)
(0.95233 0.00695063 0)
(1.03357 -0.00399865 0)
(0.934386 0.00262318 0)
(1.00923 -9.97514e-05 0)
(0.975275 -0.00192834 0)
(0.997466 0.00025452 0)
(0.97595 0.00228431 0)
(0.986378 0.00263512 0)
(0.973182 0.0043806 0)
(0.980761 0.00103706 0)
(0.974428 0.0059375 0)
(0.982374 -0.000955867 0)
(0.975417 0.00582354 0)
(0.981368 0.00108422 0)
(0.978846 0.0051483 0)
(0.977736 0.00274336 0)
(0.96778 0.00290559 0)
(1.02183 -0.00311608 0)
(0.972796 0.00420914 0)
(1.01303 -0.0042461 0)
(0.968817 0.00679195 0)
(1.01922 -0.00376302 0)
(0.961696 0.00290618 0)
(0.996803 -0.000552469 0)
(0.989071 -0.00185419 0)
(0.992278 0.000296924 0)
(0.984954 0.00250178 0)
(0.986353 0.00268894 0)
(0.980378 0.00451529 0)
(0.98264 0.00103512 0)
(0.979759 0.00591287 0)
(0.98428 -0.000978914 0)
(0.97947 0.00582822 0)
(0.983712 0.00101161 0)
(0.982871 0.00537303 0)
(0.981755 0.00313353 0)
(0.981755 0.002955 0)
(1.0114 -0.00308973 0)
(0.98469 0.00422625 0)
(1.00648 -0.00413367 0)
(0.980253 0.00665739 0)
(1.01195 -0.00364208 0)
(0.978582 0.0031388 0)
(0.994626 -0.000831009 0)
(0.995053 -0.00184144 0)
(0.992715 0.000380999 0)
(0.990322 0.00265588 0)
(0.989694 0.00274303 0)
(0.986168 0.00463006 0)
(0.9866 0.0010384 0)
(0.98496 0.00590512 0)
(0.987672 -0.000944834 0)
(0.983607 0.00571275 0)
(0.986849 0.0010358 0)
(0.986575 0.00540354 0)
(0.985674 0.00350343 0)
(0.990468 0.00297794 0)
(1.00602 -0.00305689 0)
(0.991953 0.00421677 0)
(1.00371 -0.00402768 0)
(0.987621 0.00653644 0)
(1.0086 -0.00358565 0)
(0.987965 0.00330057 0)
(0.996361 -0.000970905 0)
(0.997612 -0.00183742 0)
(0.993998 0.000445566 0)
(0.993813 0.00275513 0)
(0.993052 0.00277342 0)
(0.990803 0.00472104 0)
(0.990578 0.00105996 0)
(0.989612 0.00589995 0)
(0.991255 -0.000874397 0)
(0.987453 0.00560691 0)
(0.989939 0.00114367 0)
(0.989676 0.00534139 0)
(0.988927 0.00388352 0)
(0.995297 0.00297669 0)
(1.00349 -0.00301976 0)
(0.9961 0.00418934 0)
(1.00255 -0.00392968 0)
(0.992332 0.00642119 0)
(1.00685 -0.00354853 0)
(0.99298 0.00340153 0)
(0.998557 -0.00102951 0)
(0.998889 -0.00181645 0)
(0.994845 0.000490382 0)
(0.995913 0.00281379 0)
(0.99552 0.00277917 0)
(0.994152 0.00478608 0)
(0.993805 0.00109642 0)
(0.993349 0.00587108 0)
(0.994307 -0.000735365 0)
(0.990718 0.00549454 0)
(0.992511 0.0013221 0)
(0.992138 0.00525628 0)
(0.991345 0.0042785 0)
(0.997796 0.00295917 0)
(1.00226 -0.00298113 0)
(0.998433 0.00415254 0)
(1.00191 -0.00384051 0)
(0.995401 0.00631209 0)
(1.00563 -0.00350812 0)
(0.995696 0.00344923 0)
(1.00016 -0.00103935 0)
(0.999611 -0.00177559 0)
(0.995292 0.000531328 0)
(0.997062 0.00283775 0)
(0.997068 0.00276167 0)
(0.996378 0.00482095 0)
(0.996117 0.00114108 0)
(0.996086 0.00581382 0)
(0.996604 -0.000539857 0)
(0.993246 0.00535623 0)
(0.994476 0.00157045 0)
(0.993992 0.00516713 0)
(0.99308 0.00467216 0)
(0.999068 0.00293273 0)
(1.00156 -0.00294215 0)
(0.999766 0.00411123 0)
(1.00142 -0.00375846 0)
(0.997415 0.00620834 0)
(1.00465 -0.00345783 0)
(0.997223 0.00345527 0)
(1.00113 -0.00101619 0)
(1.00002 -0.00172343 0)
(0.995537 0.000574846 0)
(0.997677 0.00283268 0)
(0.997952 0.00273005 0)
(0.997751 0.00482445 0)
(0.997641 0.00119023 0)
(0.997913 0.0057278 0)
(0.99818 -0.000304027 0)
(0.995036 0.00519519 0)
(0.995871 0.00187268 0)
(0.995318 0.00507501 0)
(0.994302 0.00504897 0)
(0.999728 0.00290179 0)
(1.00111 -0.00290254 0)
(1.00053 0.00406708 0)
(1.00104 -0.00368109 0)
(0.998716 0.00610681 0)
(1.00389 -0.00339546 0)
(0.998108 0.00342912 0)
(1.00166 -0.000969864 0)
(1.00023 -0.00166601 0)
(0.9957 0.000624068 0)
(0.998028 0.00280757 0)
(0.998444 0.00269576 0)
(0.998534 0.00479314 0)
(0.998579 0.00125044 0)
(0.999014 0.00561408 0)
(0.999166 -3.93599e-05 0)
(0.996208 0.00501701 0)
(0.996783 0.00220823 0)
(0.996227 0.00498728 0)
(0.995149 0.00540035 0)
(1.00007 0.00286834 0)
(1.00083 -0.00286153 0)
(1.00097 0.00402015 0)
(1.00076 -0.00360586 0)
(0.999525 0.00600449 0)
(1.00336 -0.00332104 0)
(0.998623 0.00337763 0)
(1.00194 -0.000904989 0)
(1.00034 -0.0016092 0)
(0.995829 0.0006808 0)
(0.998252 0.00276752 0)
(0.998735 0.00266498 0)
(0.998947 0.00473151 0)
(0.999115 0.00132908 0)
(0.999603 0.00547175 0)
(0.999718 0.000249998 0)
(0.996929 0.00483317 0)
(0.997331 0.00255853 0)
(0.996831 0.00490939 0)
(0.995735 0.00571843 0)
(1.00024 0.00283304 0)
(1.00068 -0.0028184 0)
(1.0012 0.00397 0)
(1.00059 -0.00353018 0)
(0.999996 0.00589852 0)
(1.00302 -0.0032353 0)
(0.998921 0.0033068 0)
(1.00205 -0.000823829 0)
(1.0004 -0.00155932 0)
(0.995944 0.000746205 0)
(0.998407 0.00271283 0)
(0.998928 0.00264147 0)
(0.999146 0.00465085 0)
(0.999395 0.00142254 0)
(0.999868 0.00530816 0)
(0.999985 0.000558023 0)
(0.997354 0.00464836 0)
(0.997635 0.00290436 0)
(0.99723 0.00484573 0)
(0.996151 0.00599966 0)
(1.00031 0.00279595 0)
(1.0006 -0.00277238 0)
(1.00131 0.00391601 0)
(1.00049 -0.00345182 0)
(1.00025 0.00578669 0)
(1.00282 -0.00313878 0)
(0.999091 0.00322088 0)
(1.00206 -0.00072884 0)
(1.00043 -0.00151783 0)
(0.996052 0.000820832 0)
(0.998517 0.00264471 0)
(0.99907 0.00262927 0)
(0.99923 0.00455483 0)
(0.999527 0.0015297 0)
(0.999953 0.0051334 0)
(1.00009 0.000869611 0)
(0.997604 0.00446725 0)
(0.997796 0.00323428 0)
(0.997505 0.00480086 0)
(0.996465 0.00623996 0)
(1.00034 0.00275695 0)
(1.00057 -0.00272286 0)
(1.00135 0.00385767 0)
(1.00046 -0.0033693 0)
(1.00037 0.0056678 0)
(1.0027 -0.00303177 0)
(0.999192 0.00312205 0)
(1.00202 -0.000620644 0)
(1.00045 -0.00148658 0)
(0.996153 0.00090435 0)
(0.998596 0.00256536 0)
(0.99918 0.00262858 0)
(0.999255 0.00444634 0)
(0.999583 0.00164929 0)
(0.999951 0.00495327 0)
(1.00011 0.00117653 0)
(0.997761 0.00430033 0)
(0.997883 0.00354026 0)
(0.997713 0.00477504 0)
(0.996722 0.00643564 0)
(1.00034 0.0027159 0)
(1.00057 -0.00266931 0)
(1.00136 0.00379439 0)
(1.00045 -0.00328132 0)
(1.00041 0.0055408 0)
(1.00263 -0.00291441 0)
(0.999259 0.00301199 0)
(1.00194 -0.000500348 0)
(1.00048 -0.00146615 0)
(0.996251 0.000997243 0)
(0.998654 0.00247729 0)
(0.999268 0.00263551 0)
(0.999252 0.00433116 0)
(0.999606 0.00177745 0)
(0.999919 0.00477407 0)
(1.00009 0.00146997 0)
(0.997878 0.00415485 0)
(0.997938 0.00381747 0)
(0.997889 0.0047685 0)
(0.996952 0.00658918 0)
(1.00033 0.00267265 0)
(1.00058 -0.00261128 0)
(1.00134 0.0037256 0)
(1.00047 -0.00318703 0)
(1.00042 0.00540533 0)
(1.00257 -0.00278693 0)
(0.999309 0.0028912 0)
(1.00185 -0.000368269 0)
(1.00051 -0.00145638 0)
(0.996348 0.00109848 0)
(0.998699 0.00238268 0)
(0.999341 0.00264671 0)
(0.999234 0.00421532 0)
(0.999618 0.00190567 0)
(0.999884 0.00460615 0)
(1.00007 0.00174097 0)
(0.997983 0.00403583 0)
(0.997983 0.00406556 0)
(0.998051 0.0047784 0)
(0.997169 0.00670234 0)
(1.00032 0.00262705 0)
(1.0006 -0.00254841 0)
(1.00132 0.00365091 0)
(1.0005 -0.00308611 0)
(1.00042 0.00526129 0)
(1.00252 -0.00264914 0)
(0.999353 0.00275996 0)
(1.00176 -0.000225412 0)
(1.00054 -0.00145631 0)
(0.996446 0.00120546 0)
(0.998736 0.00228523 0)
(0.999404 0.00265834 0)
(0.99921 0.00410458 0)
(0.999628 0.0020241 0)
(0.999855 0.00445849 0)
(1.00004 0.00198753 0)
(0.998089 0.00394403 0)
(0.998028 0.00428438 0)
(0.998207 0.00479954 0)
(0.997381 0.00677679 0)
(1.00032 0.00257902 0)
(1.00061 -0.00248043 0)
(1.0013 0.00356991 0)
(1.00053 -0.00297802 0)
(1.00042 0.00510819 0)
(1.00247 -0.00250064 0)
(0.999396 0.00261854 0)
(1.00166 -7.30719e-05 0)
(1.00058 -0.00146442 0)
(0.996544 0.00131604 0)
(0.99877 0.00218951 0)
(0.999463 0.00266608 0)
(0.999184 0.00400439 0)
(0.999639 0.00212692 0)
(0.999837 0.00433352 0)
(1.00002 0.00221058 0)
(0.998198 0.00387546 0)
(0.998076 0.00447615 0)
(0.998357 0.00482983 0)
(0.997593 0.00681531 0)
(1.00031 0.00252845 0)
(1.00063 -0.00240706 0)
(1.00128 0.00348221 0)
(1.00056 -0.00286254 0)
(1.00041 0.00494628 0)
(1.00242 -0.00234222 0)
(0.999438 0.00246808 0)
(1.00157 8.708e-05 0)
(1.00061 -0.00147837 0)
(0.996643 0.00142808 0)
(0.998801 0.00209921 0)
(0.99952 0.00266482 0)
(0.999157 0.00392147 0)
(0.999649 0.00220874 0)
(0.999827 0.00423284 0)
(1 0.00241159 0)
(0.998311 0.00382275 0)
(0.99813 0.00464481 0)
(0.998502 0.00487171 0)
(0.997805 0.00682327 0)
(1.0003 0.00247526 0)
(1.00065 -0.00232813 0)
(1.00125 0.00338773 0)
(1.00059 -0.0027398 0)
(1.0004 0.00477561 0)
(1.00237 -0.00217359 0)
(0.99948 0.00230844 0)
(1.00147 0.000254048 0)
(1.00065 -0.00149529 0)
(0.996742 0.00153759 0)
(0.998831 0.00201852 0)
(0.999578 0.00264891 0)
(0.99913 0.00386166 0)
(0.99966 0.00226618 0)
(0.999824 0.00415363 0)
(0.999981 0.00259541 0)
(0.998427 0.00378043 0)
(0.99819 0.00479354 0)
(0.998639 0.00492696 0)
(0.998016 0.00680595 0)
(1.00029 0.00241945 0)
(1.00066 -0.00224353 0)
(1.00123 0.00328622 0)
(1.00061 -0.00260951 0)
(1.0004 0.00459617 0)
(1.00231 -0.00199579 0)
(0.999524 0.00214155 0)
(1.00137 0.000425977 0)
(1.00069 -0.00151487 0)
(0.996843 0.00164075 0)
(0.998859 0.00195375 0)
(0.999637 0.00261193 0)
(0.999104 0.00382651 0)
(0.999669 0.00230304 0)
(0.99983 0.00408827 0)
(0.999961 0.00276928 0)
(0.998546 0.0037438 0)
(0.998257 0.00492079 0)
(0.998768 0.00499351 0)
(0.998225 0.00676697 0)
(1.00028 0.00236098 0)
(1.00068 -0.00215316 0)
(1.00121 0.00317759 0)
(1.00064 -0.00247186 0)
(1.00039 0.00440876 0)
(1.00226 -0.00181007 0)
(0.999569 0.00196922 0)
(1.00128 0.000600178 0)
(1.00073 -0.00153401 0)
(0.996945 0.00173265 0)
(0.998883 0.00190971 0)
(0.9997 0.00255082 0)
(0.99908 0.00381435 0)
(0.999677 0.00232819 0)
(0.999844 0.00402948 0)
(0.999942 0.00294176 0)
(0.998665 0.00371079 0)
(0.998332 0.00502361 0)
(0.998889 0.0050699 0)
(0.99843 0.00671214 0)
(1.00027 0.00229981 0)
(1.00069 -0.0020569 0)
(1.00119 0.00306183 0)
(1.00066 -0.00232718 0)
(1.00039 0.00421392 0)
(1.0022 -0.00161683 0)
(0.999617 0.00179236 0)
(1.00118 0.00077466 0)
(1.00076 -0.00154776 0)
(0.997048 0.00180842 0)
(0.998903 0.00189066 0)
(0.999765 0.00246636 0)
(0.999059 0.00381898 0)
(0.999682 0.00235031 0)
(0.999866 0.00396861 0)
(0.999921 0.00311626 0)
(0.998784 0.00368222 0)
(0.998415 0.00510099 0)
(0.999002 0.00515553 0)
(0.998631 0.00664632 0)
(1.00026 0.00223592 0)
(1.0007 -0.00195455 0)
(1.00117 0.00293875 0)
(1.00069 -0.00217577 0)
(1.00038 0.00401242 0)
(1.00214 -0.00141817 0)
(0.999665 0.00161477 0)
(1.00109 0.000944784 0)
(1.0008 -0.00155165 0)
(0.997155 0.00186508 0)
(0.998918 0.00189983 0)
(0.999834 0.00236117 0)
(0.999041 0.00383366 0)
(0.999683 0.00237745 0)
(0.999897 0.00389742 0)
(0.999902 0.00329328 0)
(0.998899 0.00366221 0)
(0.998509 0.00515159 0)
(0.999107 0.0052477 0)
(0.998825 0.00657358 0)
(1.00025 0.00216936 0)
(1.00071 -0.00184649 0)
(1.00115 0.00280901 0)
(1.00071 -0.00201856 0)
(1.00038 0.00380586 0)
(1.00208 -0.00121584 0)
(0.999715 0.0014379 0)
(1.00099 0.00110772 0)
(1.00083 -0.00154213 0)
(0.997265 0.00189763 0)
(0.998927 0.00193435 0)
(0.999905 0.00224319 0)
(0.999029 0.00385033 0)
(0.999679 0.00241725 0)
(0.999938 0.00381349 0)
(0.999884 0.0034721 0)
(0.999009 0.0036557 0)
(0.998612 0.00517366 0)
(0.999207 0.00534325 0)
(0.99901 0.00650156 0)
(1.00024 0.00210039 0)
(1.00072 -0.00173315 0)
(1.00113 0.00267313 0)
(1.00073 -0.0018562 0)
(1.00038 0.00359529 0)
(1.00202 -0.0010117 0)
(0.999766 0.00126504 0)
(1.00089 0.00126049 0)
(1.00086 -0.0015154 0)
(0.997379 0.00190326 0)
(0.998931 0.00199275 0)
(0.999978 0.0021184 0)
(0.999024 0.00385995 0)
(0.999668 0.00247486 0)
(0.999987 0.00371487 0)
(0.999869 0.00364706 0)
(0.999111 0.00366789 0)
(0.998726 0.00516752 0)
(0.999302 0.00543645 0)
(0.999186 0.00643386 0)
(1.00023 0.00202871 0)
(1.00072 -0.00161398 0)
(1.00111 0.00253132 0)
(1.00075 -0.00169008 0)
(1.00038 0.003383 0)
(1.00195 -0.000808898 0)
(0.999818 0.00109932 0)
(1.0008 0.00140011 0)
(1.00088 -0.00146766 0)
(0.997498 0.00188316 0)
(0.998929 0.00207 0)
(1.00005 0.0019938 0)
(0.999028 0.00385658 0)
(0.999651 0.00255398 0)
(1.00004 0.00360234 0)
(0.999861 0.00381 0)
(0.999203 0.00370211 0)
(0.998847 0.00513433 0)
(0.999395 0.00552026 0)
(0.999352 0.0063727 0)
(1.00023 0.00195472 0)
(1.00073 -0.0014898 0)
(1.00109 0.00238471 0)
(1.00076 -0.00152154 0)
(1.00038 0.0031706 0)
(1.00188 -0.000609152 0)
(0.999869 0.000943104 0)
(1.00071 0.00152209 0)
(1.0009 -0.00139753 0)
(0.997622 0.00184201 0)
(0.998923 0.00215991 0)
(1.00012 0.00187804 0)
(0.999042 0.00383647 0)
(0.999626 0.0026567 0)
(1.00011 0.00348241 0)
(0.999862 0.00395461 0)
(0.999283 0.00376037 0)
(0.998975 0.00507727 0)
(0.999488 0.00558799 0)
(0.999507 0.00631983 0)
(1.00022 0.00187857 0)
(1.00073 -0.00136097 0)
(1.00107 0.00223363 0)
(1.00078 -0.00135083 0)
(1.00039 0.00295914 0)
(1.00182 -0.00041503 0)
(0.999919 0.000800176 0)
(1.00062 0.00162315 0)
(1.00091 -0.00130542 0)
(0.99775 0.00178163 0)
(0.998913 0.0022566 0)
(1.00019 0.00177687 0)
(0.999068 0.00379676 0)
(0.999595 0.00277992 0)
(1.00018 0.00336115 0)
(0.999875 0.00407502 0)
(0.999351 0.00384546 0)
(0.999106 0.00500496 0)
(0.999585 0.00563443 0)
(0.999653 0.00627498 0)
(1.00021 0.00180026 0)
(1.00072 -0.00122819 0)
(1.00105 0.00208048 0)
(1.00079 -0.00118167 0)
(1.00039 0.00275312 0)
(1.00175 -0.000231693 0)
(0.999969 0.000675882 0)
(1.00054 0.00170114 0)
(1.00092 -0.00119487 0)
(0.997881 0.00170584 0)
(0.998901 0.00235211 0)
(1.00026 0.00169291 0)
(0.999106 0.0037356 0)
(0.999557 0.00291915 0)
(1.00024 0.0032447 0)
(0.999901 0.00416334 0)
(0.999405 0.00395546 0)
(0.999236 0.00492662 0)
(0.999687 0.00565493 0)
(0.99979 0.00623588 0)
(1.0002 0.00172034 0)
(1.00072 -0.00109252 0)
(1.00103 0.00192608 0)
(1.00079 -0.00101509 0)
(1.00039 0.0025535 0)
(1.00167 -6.04352e-05 0)
(1.00002 0.000571707 0)
(1.00046 0.0017556 0)
(1.00091 -0.00106606 0)
(0.998016 0.00162604 0)
(0.998887 0.00244165 0)
(1.00031 0.00162918 0)
(0.999158 0.00365317 0)
(0.999513 0.00307006 0)
(1.00031 0.00314132 0)
(0.999943 0.00421254 0)
(0.999448 0.00408398 0)
(0.999361 0.00485159 0)
(0.999794 0.00564712 0)
(0.99992 0.00619748 0)
(1.00019 0.00163892 0)
(1.00071 -0.000954648 0)
(1.00101 0.00177146 0)
(1.0008 -0.000852332 0)
(1.0004 0.00236249 0)
(1.0016 9.56876e-05 0)
(1.00006 0.000487115 0)
(1.00038 0.00179139 0)
(1.0009 -0.000924076 0)
(0.998152 0.00154507 0)
(0.998872 0.00252314 0)
(1.00036 0.00158643 0)
(0.999223 0.00355055 0)
(0.999467 0.00322689 0)
(1.00037 0.0030598 0)
(1 0.00421999 0)
(0.999484 0.0042233 0)
(0.999476 0.00479079 0)
(0.999907 0.00561387 0)
(1.00005 0.00615619 0)
(1.00018 0.00155651 0)
(1.0007 -0.000816174 0)
(1.00099 0.00161988 0)
(1.0008 -0.000697494 0)
(1.0004 0.00218375 0)
(1.00153 0.000235097 0)
(1.0001 0.000422942 0)
(1.00031 0.00180933 0)
(1.00089 -0.000775091 0)
(0.998289 0.00146399 0)
(0.998858 0.00259693 0)
(1.00041 0.00156428 0)
(0.999302 0.00343274 0)
(0.99942 0.00338448 0)
(1.00042 0.00300737 0)
(1.00008 0.00418669 0)
(0.999515 0.00436289 0)
(0.999578 0.00475172 0)
(1.00002 0.00556075 0)
(1.00017 0.00610958 0)
(1.00018 0.00147334 0)
(1.00068 -0.000677475 0)
(1.00097 0.00147173 0)
(1.0008 -0.000551801 0)
(1.0004 0.00201965 0)
(1.00146 0.000355842 0)
(1.00014 0.000376975 0)
(1.00024 0.00181229 0)
(1.00086 -0.000620344 0)
(0.998426 0.00138571 0)
(0.998844 0.00266314 0)
(1.00044 0.00156291 0)
(0.999393 0.00330229 0)
(0.999375 0.00353426 0)
(1.00046 0.00298841 0)
(1.00017 0.00411758 0)
(0.999548 0.00448949 0)
(0.999665 0.00473479 0)
(1.00014 0.00549067 0)
(1.00029 0.00605169 0)
(1.00017 0.00138997 0)
(1.00067 -0.00054073 0)
(1.00095 0.0013307 0)
(1.0008 -0.000418037 0)
(1.00041 0.00187154 0)
(1.00138 0.000457688 0)
(1.00017 0.000348379 0)
(1.00018 0.00180648 0)
(1.00083 -0.000465977 0)
(0.998563 0.00130858 0)
(0.998833 0.00271919 0)
(1.00046 0.00158331 0)
(0.999496 0.00315945 0)
(0.999336 0.0036669 0)
(1.00048 0.0030043 0)
(1.00028 0.00402289 0)
(0.999587 0.00459456 0)
(0.999736 0.00473903 0)
(1.00026 0.00540782 0)
(1.00042 0.00597794 0)
(1.00016 0.00130733 0)
(1.00064 -0.000407324 0)
(1.00092 0.00119788 0)
(1.0008 -0.000298458 0)
(1.00041 0.00174086 0)
(1.00131 0.000542573 0)
(1.0002 0.000334172 0)
(1.00013 0.00179589 0)
(1.0008 -0.000311006 0)
(0.998699 0.00123359 0)
(0.998826 0.00276429 0)
(1.00047 0.00162623 0)
(0.999609 0.00300966 0)
(0.999307 0.0037786 0)
(1.00048 0.00305538 0)
(1.00039 0.00391345 0)
(0.999636 0.00467268 0)
(0.99979 0.0047638 0)
(1.00036 0.00531927 0)
(1.00054 0.00588567 0)
(1.00015 0.00122527 0)
(1.00062 -0.000277831 0)
(1.0009 0.00107615 0)
(1.0008 -0.000195217 0)
(1.00041 0.00162811 0)
(1.00124 0.000611964 0)
(1.00023 0.000328782 0)
(1.00007 0.00178198 0)
(1.00076 -0.000154635 0)
(0.998832 0.00116191 0)
(0.998825 0.00279873 0)
(1.00046 0.00169015 0)
(0.999728 0.00285788 0)
(0.99929 0.0038633 0)
(1.00046 0.00313932 0)
(1.00051 0.00379853 0)
(0.999699 0.00471743 0)
(0.99983 0.00480686 0)
(1.00046 0.00523464 0)
(1.00067 0.00577396 0)
(1.00014 0.00114451 0)
(1.00059 -0.000154381 0)
(1.00087 0.000969203 0)
(1.0008 -0.00010961 0)
(1.0004 0.00153014 0)
(1.00117 0.000669327 0)
(1.00026 0.000330172 0)
(1.00002 0.001765 0)
(1.00071 -1.03483e-06 0)
(0.998963 0.00109308 0)
(0.99883 0.00281832 0)
(1.00044 0.0017746 0)
(0.999852 0.00271014 0)
(0.999291 0.00391303 0)
(1.00043 0.0032503 0)
(1.00062 0.00368907 0)
(0.999778 0.00472278 0)
(0.999858 0.00486029 0)
(1.00054 0.00516273 0)
(1.0008 0.00564474 0)
(1.00013 0.00106585 0)
(1.00056 -3.66638e-05 0)
(1.00085 0.000878817 0)
(1.00079 -4.34331e-05 0)
(1.0004 0.00144608 0)
(1.0011 0.000717581 0)
(1.00028 0.000334792 0)
(0.99998 0.00174435 0)
(1.00066 0.000151336 0)
(0.999089 0.00103018 0)
(0.998844 0.00281966 0)
(1.00041 0.00188018 0)
(0.999976 0.00257668 0)
(0.99931 0.00392384 0)
(1.00038 0.00337794 0)
(1.00073 0.0035962 0)
(0.999873 0.00468723 0)
(0.999881 0.00491236 0)
(1.0006 0.00510959 0)
(1.00092 0.00550363 0)
(1.00013 0.000989665 0)
(1.00052 7.2972e-05 0)
(1.00081 0.000807038 0)
(1.00079 2.13774e-06 0)
(1.0004 0.00137341 0)
(1.00103 0.000761368 0)
(1.00029 0.000339193 0)
(0.999941 0.00171902 0)
(1.0006 0.000306993 0)
(0.999211 0.000977385 0)
(0.998868 0.00280017 0)
(1.00037 0.00200055 0)
(1.00009 0.00246597 0)
(0.99935 0.00389761 0)
(1.00033 0.00350916 0)
(1.00082 0.00352906 0)
(0.999985 0.00461776 0)
(0.999903 0.00495303 0)
(1.00064 0.00508008 0)
(1.00104 0.00536013 0)
(1.00012 0.000916785 0)
(1.00049 0.00017151 0)
(1.00078 0.000753262 0)
(1.00078 3.05201e-05 0)
(1.00039 0.00130881 0)
(1.00096 0.000803557 0)
(1.00031 0.000346105 0)
(0.999908 0.00168769 0)
(1.00053 0.000464697 0)
(0.999324 0.000939099 0)
(0.998904 0.00275886 0)
(1.00032 0.00212561 0)
(1.00021 0.0023816 0)
(0.999409 0.00384206 0)
(1.00027 0.00363202 0)
(1.00089 0.00348983 0)
(1.00011 0.00452397 0)
(0.999932 0.00497167 0)
(1.00065 0.00507323 0)
(1.00114 0.00522382 0)
(1.00011 0.00084748 0)
(1.00045 0.000257969 0)
(1.00074 0.000716644 0)
(1.00077 4.8004e-05 0)
(1.00039 0.00124684 0)
(1.00089 0.000846228 0)
(1.00032 0.000359647 0)
(0.999882 0.0016506 0)
(1.00047 0.000619683 0)
(0.999429 0.000917781 0)
(0.99895 0.00269797 0)
(1.00027 0.00224748 0)
(1.0003 0.00232548 0)
(0.999486 0.00376657 0)
(1.00021 0.00373838 0)
(1.00094 0.00347357 0)
(1.00024 0.0044145 0)
(0.999973 0.00495876 0)
(1.00065 0.00508269 0)
(1.00122 0.00510485 0)
(1.0001 0.000782146 0)
(1.00042 0.000332457 0)
(1.0007 0.00069374 0)
(1.00076 5.8393e-05 0)
(1.00039 0.00118316 0)
(1.00082 0.000891581 0)
(1.00033 0.000378084 0)
(0.999862 0.00160696 0)
(1.0004 0.00076987 0)
(0.999522 0.000915241 0)
(0.999007 0.00262186 0)
(1.00021 0.00235947 0)
(1.00039 0.0022987 0)
(0.999577 0.00367769 0)
(1.00015 0.00382661 0)
(1.00097 0.00347673 0)
(1.00037 0.00430068 0)
(1.00003 0.00491152 0)
(1.00063 0.00509913 0)
(1.00127 0.00501073 0)
(1.0001 0.000720888 0)
(1.00038 0.000393946 0)
(1.00065 0.000683798 0)
(1.00075 6.6352e-05 0)
(1.00039 0.00111633 0)
(1.00075 0.000936338 0)
(1.00033 0.000402754 0)
(0.999849 0.00155495 0)
(1.00033 0.000910908 0)
(0.999604 0.000933839 0)
(0.999072 0.00253674 0)
(1.00016 0.00245618 0)
(1.00046 0.00229884 0)
(0.99968 0.00358058 0)
(1.0001 0.00389568 0)
(1.00098 0.00349655 0)
(1.0005 0.00419281 0)
(1.0001 0.00483326 0)
(1.00061 0.00511217 0)
(1.00131 0.00494359 0)
(1.00009 0.000664272 0)
(1.00034 0.000441893 0)
(1.0006 0.000685033 0)
(1.00073 7.62594e-05 0)
(1.00039 0.00104346 0)
(1.00068 0.000977354 0)
(1.00033 0.000437959 0)
(0.999842 0.00149899 0)
(1.00026 0.00103758 0)
(0.999674 0.000974248 0)
(0.999144 0.00244909 0)
(1.00011 0.0025317 0)
(1.00052 0.00231819 0)
(0.999791 0.0034821 0)
(1.00006 0.00394381 0)
(1.00098 0.00352674 0)
(1.00061 0.00409287 0)
(1.00019 0.00472668 0)
(1.0006 0.00511199 0)
(1.00131 0.00490452 0)
(1.00008 0.000612193 0)
(1.00031 0.000476943 0)
(1.00055 0.000694555 0)
(1.00071 9.15872e-05 0)
(1.00039 0.000965342 0)
(1.00062 0.00101401 0)
(1.00032 0.00048265 0)
(0.99984 0.00144262 0)
(1.0002 0.00114841 0)
(0.999731 0.00103276 0)
(0.99922 0.002366 0)
(1.00007 0.00258452 0)
(1.00057 0.00234907 0)
(0.999908 0.00338803 0)
(1.00003 0.00397234 0)
(1.00096 0.00356378 0)
(1.00071 0.00400449 0)
(1.0003 0.00459567 0)
(1.00059 0.00508689 0)
(1.0013 0.00489135 0)
(1.00008 0.000564761 0)
(1.00028 0.000498749 0)
(1.0005 0.000710736 0)
(1.00069 0.000115222 0)
(1.0004 0.000884875 0)
(1.00056 0.00104206 0)
(1.00031 0.00053912 0)
(0.999843 0.00139082 0)
(1.00014 0.00124158 0)
(0.999778 0.00110175 0)
(0.999298 0.00229263 0)
(1.00004 0.00261996 0)
(1.0006 0.00238497 0)
(1.00003 0.00329782 0)
(1.00002 0.00398112 0)
(1.00092 0.0036054 0)
(1.0008 0.00393647 0)
(1.00041 0.00445021 0)
(1.00061 0.00502813 0)
(1.00127 0.0048996 0)
(1.00007 0.000521774 0)
(1.00025 0.000509432 0)
(1.00045 0.000730651 0)
(1.00066 0.000147419 0)
(1.0004 0.000805733 0)
(1.00051 0.00105725 0)
(1.00029 0.000606114 0)
(0.999848 0.00134692 0)
(1.0001 0.00131451 0)
(0.999816 0.00117621 0)
(0.999376 0.00223121 0)
(1.00001 0.0026421 0)
(1.00063 0.00242089 0)
(1.00015 0.00321131 0)
(1.00002 0.00397161 0)
(1.00088 0.00364599 0)
(1.00086 0.0038926 0)
(1.00053 0.00430164 0)
(1.00065 0.0049264 0)
(1.00122 0.00491844 0)
(1.00007 0.000483378 0)
(1.00022 0.000510197 0)
(1.0004 0.000750879 0)
(1.00063 0.000189685 0)
(1.00041 0.00073052 0)
(1.00047 0.00105853 0)
(1.00028 0.00067717 0)
(0.999856 0.00131258 0)
(1.00005 0.00136978 0)
(0.999848 0.00125254 0)
(0.999453 0.00218262 0)
(0.999996 0.00265195 0)
(1.00064 0.00245661 0)
(1.00027 0.00312885 0)
(1.00003 0.00394766 0)
(1.00083 0.00367965 0)
(1.0009 0.00386985 0)
(1.00064 0.00416616 0)
(1.00072 0.00477785 0)
(1.00118 0.00492948 0)
(1.00006 0.000448636 0)
(1.0002 0.000504905 0)
(1.00036 0.000768958 0)
(1.0006 0.000240227 0)
(1.00042 0.000661781 0)
(1.00043 0.00104484 0)
(1.00026 0.000749552 0)
(0.999863 0.00129186 0)
(1.00002 0.0014121 0)
(0.999874 0.00132531 0)
(0.999529 0.0021456 0)
(0.999986 0.00265391 0)
(1.00065 0.00249369 0)
(1.00039 0.0030462 0)
(1.00006 0.00390829 0)
(1.00079 0.00370207 0)
(1.00092 0.00386055 0)
(1.00072 0.0040643 0)
(1.00081 0.00459609 0)
(1.00115 0.00491929 0)
(1.00006 0.000417236 0)
(1.00018 0.000495363 0)
(1.00031 0.000782325 0)
(1.00056 0.000296734 0)
(1.00042 0.000604919 0)
(1.00041 0.00101549 0)
(1.00024 0.000817844 0)
(0.999871 0.00128748 0)
(0.99999 0.00144653 0)
(0.999898 0.00139011 0)
(0.999603 0.00211531 0)
(0.999984 0.00265301 0)
(1.00066 0.00253298 0)
(1.0005 0.00296607 0)
(1.0001 0.00385287 0)
(1.00075 0.00371145 0)
(1.00092 0.00385443 0)
(1.00079 0.00400376 0)
(1.00092 0.00439723 0)
(1.00115 0.00487106 0)
(1.00005 0.000389141 0)
(1.00016 0.000482701 0)
(1.00027 0.000789705 0)
(1.00052 0.000357624 0)
(1.00043 0.000561899 0)
(1.00039 0.000974743 0)
(1.00023 0.000877698 0)
(0.999879 0.00129739 0)
(0.999966 0.00147801 0)
(0.999919 0.00144697 0)
(0.999676 0.00208741 0)
(0.99999 0.00264856 0)
(1.00065 0.00257194 0)
(1.00061 0.00289307 0)
(1.00016 0.0037828 0)
(1.00072 0.00370675 0)
(1.00092 0.00384099 0)
(1.00082 0.00398173 0)
(1.00103 0.00420532 0)
(1.00116 0.00478013 0)
(1.00005 0.00036331 0)
(1.00014 0.000469291 0)
(1.00024 0.000789664 0)
(1.00048 0.00042084 0)
(1.00043 0.000534406 0)
(1.00037 0.000927977 0)
(1.00022 0.000925562 0)
(0.999887 0.00131686 0)
(0.999947 0.00150955 0)
(0.999938 0.00149851 0)
(0.999749 0.00206112 0)
(1 0.00263741 0)
(1.00064 0.00261318 0)
(1.00072 0.0028295 0)
(1.00022 0.00369925 0)
(1.0007 0.00368795 0)
(1.00093 0.00381039 0)
(1.00083 0.00398605 0)
(1.00113 0.00404059 0)
(1.0012 0.00465644 0)
(1.00004 0.000339663 0)
(1.00013 0.000455974 0)
(1.00021 0.000781487 0)
(1.00044 0.00048399 0)
(1.00042 0.000523547 0)
(1.00037 0.000878312 0)
(1.00021 0.000957335 0)
(0.999897 0.00134277 0)
(0.999932 0.0015448 0)
(0.999954 0.0015469 0)
(0.999821 0.00203498 0)
(1.00003 0.00261547 0)
(1.00063 0.00265876 0)
(1.00081 0.00277864 0)
(1.0003 0.00360599 0)
(1.00068 0.00365577 0)
(1.00094 0.00375755 0)
(1.00082 0.00400165 0)
(1.0012 0.00390833 0)
(1.00126 0.00450758 0)
(1.00004 0.000317627 0)
(1.00012 0.000444142 0)
(1.00018 0.000765689 0)
(1.0004 0.00054406 0)
(1.00041 0.000529013 0)
(1.00036 0.0008304 0)
(1.00022 0.000971487 0)
(0.99991 0.00137047 0)
(0.999919 0.00158551 0)
(0.999967 0.00159386 0)
(0.999891 0.0020086 0)
(1.00007 0.00258084 0)
(1.00061 0.00270185 0)
(1.00089 0.00274389 0)
(1.00038 0.00351269 0)
(1.00067 0.00361127 0)
(1.00097 0.00368056 0)
(1.0008 0.00401868 0)
(1.00125 0.00381302 0)
(1.00133 0.00434116 0)
(1.00004 0.000296921 0)
(1.00011 0.000434332 0)
(1.00016 0.000743603 0)
(1.00036 0.000598007 0)
(1.0004 0.000549123 0)
(1.00036 0.000788975 0)
(1.00023 0.000968973 0)
(0.999928 0.00139337 0)
(0.99991 0.00163179 0)
(0.999976 0.00164241 0)
(0.999957 0.00198575 0)
(1.00011 0.00253596 0)
(1.0006 0.00273537 0)
(1.00095 0.00272199 0)
(1.00046 0.00342771 0)
(1.00066 0.00356321 0)
(1.00101 0.00357392 0)
(1.00079 0.00401926 0)
(1.00127 0.00375694 0)
(1.00141 0.00416507 0)
(1.00003 0.000277295 0)
(1.0001 0.000426951 0)
(1.00014 0.000717494 0)
(1.00032 0.000643654 0)
(1.00038 0.000579496 0)
(1.00036 0.000757355 0)
(1.00025 0.000954486 0)
(0.999954 0.00140742 0)
(0.999905 0.00168065 0)
(0.999981 0.00169445 0)
(1.00002 0.00196813 0)
(1.00017 0.00248013 0)
(1.0006 0.00275762 0)
(1.00101 0.00270843 0)
(1.00054 0.00334831 0)
(1.00065 0.00352902 0)
(1.00106 0.00344398 0)
(1.00079 0.00398322 0)
(1.00125 0.00373869 0)
(1.00148 0.00399034 0)
(1.00003 0.0002585 0)
(1.00009 0.000422241 0)
(1.00013 0.000689153 0)
(1.00029 0.000679624 0)
(1.00036 0.000617587 0)
(1.00036 0.000737957 0)
(1.00027 0.000932311 0)
(0.999988 0.00140913 0)
(0.999905 0.00172674 0)
(0.999982 0.00175131 0)
(1.00007 0.00195987 0)
(1.00024 0.0024127 0)
(1.0006 0.00276567 0)
(1.00106 0.00270437 0)
(1.00063 0.0032663 0)
(1.00063 0.0035178 0)
(1.00111 0.00331069 0)
(1.00082 0.00389359 0)
(1.00121 0.00374535 0)
(1.00154 0.0038299 0)
(1.00003 0.000240583 0)
(1.00009 0.000419709 0)
(1.00012 0.000660677 0)
(1.00027 0.000704175 0)
(1.00034 0.000660534 0)
(1.00035 0.000732544 0)
(1.00029 0.000906698 0)
(1.00003 0.00139648 0)
(0.999913 0.00176679 0)
(0.99998 0.00181262 0)
(1.00011 0.00196364 0)
(1.00031 0.0023394 0)
(1.00062 0.00275153 0)
(1.0011 0.00270939 0)
(1.00073 0.0031772 0)
(1.0006 0.00352148 0)
(1.00114 0.00320387 0)
(1.00089 0.0037468 0)
(1.00117 0.00375379 0)
(1.00158 0.00369575 0)
(1.00002 0.000223576 0)
(1.00008 0.000418777 0)
(1.00011 0.000633803 0)
(1.00025 0.000716807 0)
(1.00032 0.000705112 0)
(1.00034 0.000741681 0)
(1.00032 0.000882308 0)
(1.00008 0.00136867 0)
(0.999931 0.00179571 0)
(0.999977 0.00187682 0)
(1.00014 0.00197892 0)
(1.00038 0.00227008 0)
(1.00065 0.00271153 0)
(1.00114 0.00272008 0)
(1.00083 0.00308433 0)
(1.00057 0.00352029 0)
(1.00115 0.00314724 0)
(1.00097 0.00355913 0)
(1.00113 0.00373831 0)
(1.0016 0.003592 0)
(1.00002 0.000207598 0)
(1.00007 0.000418915 0)
(1.00011 0.000609624 0)
(1.00023 0.000717941 0)
(1.0003 0.000747773 0)
(1.00033 0.000764507 0)
(1.00035 0.000863594 0)
(1.00014 0.0013281 0)
(0.99996 0.0018084 0)
(0.999974 0.00194037 0)
(1.00016 0.00200609 0)
(1.00045 0.00221181 0)
(1.00069 0.00264637 0)
(1.00117 0.00272727 0)
(1.00094 0.00299777 0)
(1.00056 0.00349683 0)
(1.00112 0.00314117 0)
(1.00107 0.00336416 0)