/*--------------------------------*- C++ -*----------------------------------*\
| =========                 |                                                 |
| \\      /  F ield         | OpenFOAM: The Open Source CFD Toolbox           |
|  \\    /   O peration     | Version:  v2012                                 |
|   \\  /    A nd           | Website:  www.openfoam.com                      |
|    \\/     M anipulation  |                                                 |
\*---------------------------------------------------------------------------*/
FoamFile
{
    version     2.0;
    format      ascii;
    class       volScalarField;
    location    "0.5";
    object      p;
}
// * * * * * * * * * * * * * * * * * * * * * * * * * * * * * * * * * * * * * //

dimensions      [0 2 -2 0 0 0 0];


internalField   nonuniform List<scalar> 
8000
(
3.14629e-11
0.000847534
0.00066417
0.000761882
0.00063149
0.00102515
0.00113021
0.000842167
0.000951541
0.000987797
0.00106266
0.001453
0.00140469
0.00167914
0.00195319
0.00333752
0.00356831
0.00476998
0.00585248
0.00790847
6.79968e-07
0.000846506
0.000665864
0.00076256
0.00063335
0.00102126
0.00112751
0.000840418
0.00095656
0.000985387
0.00108813
0.00144652
0.00143155
0.00167344
0.0019657
0.00325423
0.00357971
0.00473011
0.00585403
0.00768282
2.02896e-06
0.000845475
0.000667732
0.000763021
0.000635793
0.00101499
0.00112417
0.000840171
0.000959991
0.000982747
0.00109586
0.00143723
0.00144825
0.00166421
0.0019778
0.00320531
0.00359135
0.00468785
0.00583619
0.00742079
4.33665e-06
0.000844748
0.000669003
0.000763167
0.000639158
0.00100744
0.00112045
0.00084131
0.000962655
0.000978966
0.00110308
0.00142665
0.00146883
0.00165335
0.00199292
0.0031573
0.00359868
0.00464469
0.00579296
0.00717747
7.64939e-06
0.000844015
0.000669591
0.000763046
0.000643683
0.000998857
0.00111638
0.000843314
0.000964957
0.0009746
0.00111045
0.00141535
0.00149327
0.00164049
0.00201129
0.00310918
0.00360265
0.00459839
0.00572937
0.00695385
1.17029e-05
0.000843052
0.000669685
0.000762687
0.00064905
0.000989569
0.00111243
0.000845461
0.000967341
0.000969839
0.00111812
0.00140382
0.00151643
0.00162642
0.0020291
0.00306141
0.00360276
0.00454844
0.00565136
0.00674328
1.61927e-05
0.000841799
0.000669539
0.000762108
0.000654915
0.000979991
0.00110892
0.000847398
0.000970061
0.000964626
0.00112626
0.00139203
0.00153965
0.00161195
0.00204497
0.00301621
0.00359694
0.004496
0.0055615
0.00654001
2.09252e-05
0.000840274
0.000669386
0.000761331
0.000661094
0.000970329
0.00110585
0.000848971
0.000973317
0.000958958
0.00113488
0.00138007
0.00156282
0.00159715
0.00205877
0.00297499
0.00358346
0.00444197
0.00546097
0.0063408
2.58183e-05
0.000838518
0.000669382
0.00076036
0.000667486
0.000960599
0.00110319
0.000850133
0.000976997
0.000952866
0.00114394
0.00136821
0.00158528
0.00158259
0.00206992
0.00293756
0.00356155
0.00438684
0.00535081
0.00614402
3.08558e-05
0.000836557
0.000669604
0.000759173
0.000674047
0.00095078
0.0011009
0.000850861
0.000981103
0.000946419
0.00115333
0.00135669
0.00160648
0.00156913
0.00207703
0.00290364
0.0035316
0.00433014
0.00523225
0.005949
3.60488e-05
0.000834389
0.000670082
0.000757749
0.000680766
0.000940852
0.00109895
0.000851135
0.000985564
0.000939723
0.00116285
0.00134577
0.00162592
0.00155739
0.0020792
0.00287343
0.00349411
0.00427045
0.00510703
0.00575545
4.14162e-05
0.000831996
0.000670831
0.000756071
0.000687643
0.0009308
0.00109728
0.000850953
0.000990279
0.000932913
0.00117221
0.00133588
0.00164301
0.00154779
0.00207608
0.00284689
0.00344943
0.00420649
0.00497724
0.00556306
4.69775e-05
0.000829349
0.000671863
0.000754124
0.000694672
0.000920615
0.00109586
0.000850354
0.000995099
0.000926186
0.0011811
0.00132739
0.00165721
0.00154053
0.00206713
0.00282774
0.00339839
0.00413731
0.00484453
0.00537154
5.27519e-05
0.000826416
0.000673189
0.000751897
0.000701847
0.000910299
0.00109466
0.000849401
0.000999846
0.000919807
0.00118909
0.00132066
0.00166812
0.00153569
0.00204465
0.00280708
0.0033423
0.00406195
0.00471
0.00518099
5.87587e-05
0.000823165
0.000674818
0.000749383
0.000709156
0.000899861
0.0010936
0.000848159
0.00100433
0.000914082
0.00119581
0.001316
0.00167547
0.00153332
0.00202383
0.00278705
0.00328257
0.00397958
0.00457431
0.00499187
6.50174e-05
0.000819562
0.000676758
0.00074658
0.00071658
0.000889328
0.00109263
0.000846768
0.00100832
0.000909299
0.0012009
0.00131361
0.0016791
0.00153322
0.00199817
0.00276649
0.00322045
0.0038897
0.00443788
0.00480483
7.15482e-05
0.000815576
0.000679012
0.000743494
0.000724096
0.000878744
0.00109163
0.000845453
0.00101157
0.000905732
0.00120413
0.00131352
0.00167902
0.00153492
0.00196813
0.00274403
0.00315707
0.00379228
0.00430082
0.00462042
7.8372e-05
0.000811174
0.00068158
0.000740133
0.000731673
0.000868171
0.00109048
0.000844399
0.00101383
0.000903613
0.00120532
0.00131567
0.0016754
0.00153767
0.00193474
0.00271833
0.0030932
0.00368786
0.00416302
0.00443911
8.55091e-05
0.000806329
0.000684456
0.00073652
0.000739264
0.000857693
0.00108907
0.000843772
0.00101483
0.000903066
0.00120438
0.00131989
0.00166852
0.00154058
0.00189907
0.00268821
0.00302919
0.00357742
0.00402427
0.00426124
9.29779e-05
0.000801018
0.000687626
0.00073269
0.000746811
0.000847397
0.00108726
0.000843753
0.00101437
0.000904173
0.00120138
0.00132586
0.00165891
0.00154282
0.00186199
0.00265271
0.00296502
0.00346216
0.00388435
0.00408705
0.000100796
0.000795222
0.000691069
0.000728685
0.00075424
0.000837398
0.00108489
0.00084453
0.00101231
0.000906946
0.00119651
0.00133305
0.00164733
0.00154331
0.00182405
0.00261137
0.00290053
0.00334327
0.00374309
0.0039167
0.000108977
0.000788931
0.000694754
0.000724553
0.000761463
0.000827836
0.00108177
0.000846239
0.00100861
0.000911245
0.00119011
0.00134079
0.00163452
0.00154123
0.00178546
0.00256415
0.00283541
0.00322177
0.00360041
0.00375028
0.000117532
0.000782143
0.000698642
0.000720356
0.000768388
0.000818848
0.00107779
0.000848956
0.00100327
0.000916862
0.00118264
0.00134833
0.00162112
0.00153605
0.00174621
0.00251135
0.0027693
0.00309856
0.00345633
0.0035878
0.000126469
0.00077487
0.000702678
0.000716172
0.000774908
0.000810558
0.00107285
0.000852681
0.000996409
0.000923456
0.00117463
0.00135497
0.00160753
0.00152741
0.00170605
0.00245347
0.00270193
0.00297438
0.00331092
0.00342916
0.000135788
0.000767137
0.000706792
0.000712089
0.000780903
0.000803057
0.00106685
0.000857404
0.000988248
0.000930538
0.0011667
0.00136021
0.00159391
0.00151529
0.00166456
0.00239092
0.00263305
0.0028499
0.00316431
0.00327421
0.000145482
0.000758983
0.000710911
0.000708192
0.000786282
0.000796403
0.00105976
0.000863018
0.000979099
0.000937641
0.00115934
0.00136362
0.00158017
0.0014999
0.00162135
0.00232405
0.0025625
0.0027257
0.00301673
0.00312278
0.000155536
0.000750469
0.000714954
0.000704555
0.000790933
0.000790652
0.00105163
0.000869325
0.00096929
0.00094431
0.00115281
0.00136493
0.00156609
0.00148154
0.00157609
0.00225313
0.0024902
0.00260224
0.00286837
0.00297475
0.000165929
0.000741665
0.000718836
0.000701245
0.000794659
0.000785824
0.00104253
0.000876126
0.000955844
0.000950126
0.00114725
0.00136411
0.0015513
0.00146063
0.00152856
0.00217819
0.00241606
0.00247992
0.00271944
0.00282998
0.000176626
0.000732651
0.000722486
0.000698321
0.000797653
0.000781878
0.00103261
0.000883198
0.000945723
0.000954839
0.0011427
0.00136127
0.00153535
0.00143742
0.00147839
0.00209922
0.00234011
0.00235922
0.00257017
0.00268826
0.000187585
0.000723522
0.000725834
0.000695814
0.000799853
0.000778747
0.001022
0.000890296
0.000935916
0.000958325
0.00113911
0.00135658
0.00151781
0.00141201
0.00142604
0.00201632
0.00226245
0.00224073
0.0024208
0.00254918
0.00019876
0.000714383
0.000728814
0.000693732
0.000801251
0.000776322
0.00101084
0.000897213
0.000926488
0.000960529
0.00113627
0.00135023
0.00149835
0.0013844
0.00137163
0.0019296
0.00218308
0.00212511
0.00227166
0.00241219
0.000210097
0.000705337
0.00073139
0.000692053
0.000801925
0.000774488
0.000999273
0.000903788
0.000917541
0.000961409
0.00113397
0.00134238
0.00147675
0.00135446
0.00131539
0.00183924
0.00210173
0.00201286
0.0021234
0.0022769
0.000221529
0.000696474
0.000733565
0.000690724
0.000801997
0.000773145
0.000987413
0.000909903
0.000909113
0.000960925
0.00113198
0.00133316
0.00145281
0.00132141
0.00125769
0.00174551
0.0020179
0.00190428
0.00197687
0.00214307
0.000232994
0.00068788
0.000735355
0.000689677
0.000801541
0.000772203
0.000975328
0.000915482
0.000901275
0.000959017
0.00113003
0.00132271
0.0014264
0.00128668
0.00119893
0.00164887
0.00193118
0.00179952
0.00183301
0.00201055
0.000244439
0.000679627
0.000736797
0.000688836
0.000800592
0.000771603
0.000963063
0.000920401
0.000894109
0.000955668
0.00112777
0.0013112
0.00139747
0.00124931
0.00113943
0.00154995
0.00184137
0.00169856
0.00169271
0.00187927
0.000255805
0.000671744
0.000737988
0.000688144
0.000799161
0.000771317
0.000950629
0.000924493
0.000887686
0.000950917
0.00112491
0.00129868
0.00136607
0.00120912
0.00107936
0.00144947
0.00174839
0.00160118
0.00155678
0.00174938
0.000267049
0.000664236
0.000739037
0.00068756
0.000797246
0.000771337
0.000938065
0.000927593
0.000882018
0.000944843
0.00112111
0.00128509
0.00133235
0.00116611
0.0010188
0.00134806
0.00165227
0.00150704
0.00142598
0.00162119
0.000278136
0.000657089
0.000740049
0.000687066
0.000794831
0.000771659
0.000925441
0.000929486
0.000877109
0.000937621
0.00111595
0.00127032
0.00129659
0.00112032
0.000957823
0.00124635
0.00155307
0.00141579
0.00130101
0.00149504
0.000289034
0.000650251
0.000741125
0.000686713
0.000791839
0.000772251
0.000912863
0.000929963
0.000872993
0.000929427
0.00110913
0.0012544
0.00125906
0.00107172
0.000896475
0.00114494
0.00145087
0.00132697
0.00118255
0.00137148
0.00029974
0.000643624
0.00074233
0.000686662
0.000788102
0.000773028
0.000900517
0.000928885
0.000869629
0.000920429
0.00110048
0.00123718
0.00121998
0.00102038
0.000834833
0.00104454
0.00134583
0.0012399
0.00107115
0.00125124
0.00031027
0.000637081
0.000743698
0.000687152
0.000783488
0.000773846
0.000888619
0.000926122
0.000870741
0.000910784
0.00108983
0.00121842
0.00117961
0.00096651
0.000772838
0.000945869
0.00123844
0.00115374
0.000966939
0.00113516
0.000320645
0.000630519
0.000745227
0.000688437
0.000778022
0.000774444
0.000877367
0.000921548
0.000866789
0.000900552
0.0010771
0.00119805
0.00113256
0.000910179
0.000710234
0.000849642
0.00112964
0.00106785
0.00086953
0.00102383
0.000330896
0.000623866
0.0007468
0.000690758
0.000771643
0.00077445
0.000866882
0.000915243
0.000862077
0.000889788
0.00106237
0.00117622
0.00109016
0.000851503
0.000646554
0.000756555
0.00102074
0.000981841
0.000778125
0.0009174
0.000341064
0.000617068
0.000748248
0.00069431
0.000764472
0.000773492
0.000857144
0.000907431
0.000856251
0.00087843
0.00104581
0.00115285
0.00104748
0.000790897
0.000581083
0.000666807
0.000913358
0.000895922
0.000691879
0.000815525
0.00035118
0.000610137
0.000749304
0.000699189
0.000756938
0.000771254
0.000847968
0.000898427
0.000849056
0.000866191
0.00102761
0.00112785
0.00100483
0.000729222
0.000513294
0.000579542
0.000808665
0.000811219
0.000610598
0.00071749
0.000361247
0.000603144
0.000749573
0.000705353
0.000749445
0.00076754
0.000839011
0.000888499
0.000840364
0.000852697
0.00100781
0.00110114
0.000962332
0.000667407
0.000443304
0.000493569
0.000706503
0.000728883
0.000535463
0.000623005
0.000371264
0.000596192
0.0007486
0.000712612
0.000741636
0.000762342
0.000829771
0.000877749
0.000830192
0.00083758
0.00098629
0.00107326
0.000920196
0.000606223
0.000371945
0.000408572
0.000606002
0.000648467
0.000468242
0.000533106
0.000381225
0.000589396
0.000746254
0.000720642
0.000732587
0.000755824
0.00081963
0.000866133
0.00081872
0.000820786
0.000962781
0.00104418
0.000878572
0.000546112
0.000299836
0.000325268
0.000507085
0.000567907
0.00040918
0.000450073
0.000391114
0.000582894
0.000742373
0.000728971
0.000730536
0.000748465
0.000808028
0.000853387
0.000806195
0.000802372
0.000936915
0.00101373
0.000837728
0.000487563
0.000226944
0.00024392
0.000411339
0.000485331
0.000356059
0.000376377
0.000400886
0.000576933
0.000736914
0.000736944
0.000732181
0.000741073
0.000794664
0.000838969
0.000792733
0.000782704
0.000908522
0.000981598
0.000797742
0.000431389
0.000153464
0.000163522
0.000320842
0.000400615
0.000304927
0.000313299
0.000410475
0.000571602
0.000730013
0.00074389
0.0007367
0.000734583
0.00077951
0.000822172
0.000778155
0.000762436
0.000877806
0.000947381
0.000758353
0.000378275
8.04044e-05
8.24648e-05
0.000236527
0.000315873
0.000251661
0.000259577
0.00041978
0.000567041
0.000721936
0.000749171
0.00074309
0.000729806
0.000762835
0.00080231
0.000761996
0.000742079
0.000845422
0.000910903
0.000719074
0.000328582
9.28503e-06
-6.9228e-07
0.000157549
0.000234952
0.000194082
0.00021166
0.000428696
0.000563335
0.00071301
0.000752195
0.000750537
0.000727508
0.000745409
0.000778864
0.000743419
0.000721797
0.000812549
0.000872392
0.00067924
0.000282433
-5.78977e-05
-8.6709e-05
8.11787e-05
0.000161637
0.000133318
0.000165289
0.000437127
0.000560523
0.00070346
0.000752517
0.000757979
0.000728171
0.000728402
0.000751679
0.00072122
0.000701278
0.000780202
0.000832499
0.000638484
0.000239219
-0.000118975
-0.000174685
3.03038e-06
9.71396e-05
7.38962e-05
0.000117513
0.000445007
0.000558589
0.000694246
0.00074998
0.000764288
0.000731863
0.000713015
0.000721037
0.000694276
0.000679988
0.000749013
0.000792514
0.000597228
0.000197443
-0.000172661
-0.000261006
-8.12058e-05
3.83078e-05
2.15151e-05
6.90089e-05
0.000452299
0.000557422
0.000685703
0.000744628
0.000768571
0.00073822
0.000700401
0.000687797
0.000661769
0.000656573
0.000719009
0.000753806
0.000556589
0.000155864
-0.000219529
-0.000340878
-0.000172547
-2.13497e-05
-2.13778e-05
2.40948e-05
0.000458991
0.000556871
0.000678045
0.000736775
0.000769955
0.00074631
0.000691519
0.000653531
0.000623377
0.000629216
0.000689766
0.000717117
0.000518033
0.000114385
-0.000261851
-0.000410701
-0.000267101
-8.83771e-05
-5.82141e-05
-1.27359e-05
0.000465108
0.000556735
0.000671419
0.000727036
0.000767652
0.000754741
0.000686904
0.000620229
0.000579288
0.000596476
0.00066034
0.00068228
0.000482877
7.41089e-05
-0.000302058
-0.000469337
-0.000358335
-0.000165529
-9.61322e-05
-4.04986e-05
0.000470707
0.000556779
0.000665872
0.000716141
0.000761246
0.00076201
0.000686662
0.000589636
0.000530305
0.000557257
0.000629273
0.000649036
0.000451886
3.67719e-05
-0.000341686
-0.000518208
-0.000440628
-0.000249342
-0.000141583
-6.30693e-05
0.000475879
0.000556763
0.000661376
0.000704825
0.000750656
0.00076666
0.000690393
0.000563276
0.000478362
0.000511028
0.000594905
0.000616472
0.000425164
4.53446e-06
-0.000381347
-0.000560342
-0.000510404
-0.000332737
-0.000196662
-8.66487e-05
0.000480713
0.000556497
0.000657621
0.000693769
0.00073601
0.000767345
0.000696982
0.000542541
0.000425817
0.000457742
0.000555626
0.000582957
0.00040192
-2.05286e-05
-0.00042003
-0.000598961
-0.000567148
-0.00040924
-0.000257917
-0.000116414
0.000485325
0.000555767
0.000654392
0.000683512
0.000717801
0.000763034
0.000704813
0.00052818
0.000374938
0.000398236
0.000510443
0.00054682
0.000380362
-3.73865e-05
-0.0004553
-0.000635952
-0.000612285
-0.000475005
-0.000319287
-0.000153641
0.000489791
0.000554506
0.000651304
0.000674403
0.000696935
0.000753031
0.00071209
0.00052026
0.000327832
0.000334356
0.000459254
0.000506752
0.000357878
-4.61854e-05
-0.000484217
-0.000672295
-0.000647355
-0.000528524
-0.000376004
-0.000195887
0.000494143
0.000552726
0.000647809
0.000666652
0.00067474
0.000737042
0.000716846
0.000518379
0.000286659
0.000267773
0.000402023
0.000462821
0.000331576
-4.88282e-05
-0.000503366
-0.000708437
-0.000674869
-0.000568794
-0.000425642
-0.000239694
0.0004984
0.00055046
0.000643511
0.000660127
0.000652507
0.000715327
0.00071714
0.00052129
0.000253367
0.000200564
0.000338817
0.000415671
0.000300198
-4.94882e-05
-0.000510087
-0.0007431
-0.000698951
-0.000595263
-0.000466483
-0.000282018
0.000502538
0.000547785
0.000638156
0.000654515
0.000631104
0.000688518
0.000711576
0.000527008
0.000228709
0.00013591
0.000270051
0.000364844
0.000264842
-5.31338e-05
-0.000504661
-0.000772569
-0.000723823
-0.000609176
-0.000496077
-0.000320264
0.000506504
0.00054482
0.000631573
0.000649378
0.000611116
0.00065766
0.000699316
0.000533379
0.000212345
7.6914e-05
0.000197643
0.000309635
0.000227117
-6.30467e-05
-0.000490939
-0.000792083
-0.000752486
-0.000615144
-0.00051125
-0.000351012
0.000510212
0.000541672
0.000623707
0.000644195
0.000592869
0.000624188
0.000679992
0.00053833
0.000203786
2.50736e-05
0.00012462
0.000249935
0.000187543
-7.97178e-05
-0.000474998
-0.000798227
-0.000784583
-0.000620255
-0.000511123
-0.000369665
0.000513546
0.000538443
0.000614578
0.000638447
0.000576418
0.000589684
0.000653968
0.000539705
0.000202006
-1.901e-05
5.34206e-05
0.000186731
0.000146612
-0.000101544
-0.000463143
-0.000790845
-0.000815032
-0.000630899
-0.000500595
-0.000373118
0.000516409
0.00053519
0.000604273
0.000631685
0.000561673
0.00055527
0.000622085
0.000535666
0.000205361
-5.44781e-05
-1.46213e-05
0.000121227
0.000105047
-0.000125956
-0.00046027
-0.000774091
-0.000836252
-0.000649481
-0.000487624
-0.000362682
0.000518728
0.000531905
0.00059292
0.000623552
0.000548477
0.000521546
0.000585716
0.000525433
0.000211479
-8.08519e-05
-7.81155e-05
5.40153e-05
6.25813e-05
-0.000148888
-0.000467125
-0.000756336
-0.000843051
-0.000671491
-0.000478648
-0.000343768
0.000520432
0.000528536
0.000580711
0.000613734
0.000536552
0.000489064
0.000546039
0.00050916
0.000218067
-9.87337e-05
-0.000135476
-1.37476e-05
1.70814e-05
-0.000166731
-0.000478709
-0.000746984
-0.000837007
-0.00068774
-0.000476561
-0.000324363
0.000521449
0.00052503
0.000567839
0.000602021
0.000525494
0.00045841
0.00050394
0.000487029
0.000223678
-0.00010933
-0.00018602
-7.98187e-05
-3.33275e-05
-0.000180494
-0.000486522
-0.000749409
-0.000827849
-0.000691992
-0.000477167
-0.000310927
0.000521723
0.000521294
0.000554476
0.00058836
0.0005148
0.000430091
0.000460349
0.00045922
0.000227203
-0.000113594
-0.000229959
-0.000142188
-8.80947e-05
-0.000195404
-0.00048248
-0.000756714
-0.000827099
-0.000688142
-0.000472484
-0.000303167
0.000521216
0.000517195
0.000540839
0.000572801
0.000503894
0.000404527
0.000416259
0.000426075
0.00022751
-0.000112194
-0.000267456
-0.000200047
-0.000144524
-0.000216582
-0.0004661
-0.000757022
-0.000838221
-0.000688873
-0.000461793
-0.000294455
0.000519877
0.000512632
0.000527086
0.000555511
0.000492214
0.000381867
0.000372814
0.000388051
0.000223414
-0.000105944
-0.000298049
-0.000253368
-0.000199233
-0.00024601
-0.000444832
-0.000739818
-0.000851748
-0.000705016
-0.000456646
-0.000281608
0.000517673
0.000507509
0.000513297
0.000536812
0.000479205
0.000361859
0.000331299
0.000345919
0.000213778
-9.6056e-05
-0.00032113
-0.000302354
-0.00024933
-0.000282217
-0.000427089
-0.000704379
-0.000855138
-0.000733667
-0.000471685
-0.000271702
0.000514593
0.000501737
0.000499486
0.000517083
0.000464453
0.000343926
0.000292864
0.000301001
0.00019755
-8.41436e-05
-0.000335983
-0.00034739
-0.000293446
-0.000320997
-0.000418451
-0.000658835
-0.000840374
-0.000762326
-0.000509815
-0.000277256
0.000510607
0.000495282
0.000485574
0.000496753
0.00044779
0.000327312
0.000258373
0.000254996
0.000173999
-7.23552e-05
-0.000341777
-0.000388299
-0.000332031
-0.000357844
-0.000420799
-0.000611807
-0.000808969
-0.000778962
-0.00055941
-0.000305251
0.000505668
0.00048818
0.00047143
0.000476219
0.000429432
0.000311049
0.000228175
0.000209869
0.000143121
-6.32795e-05
-0.000338088
-0.000424216
-0.000366399
-0.000389536
-0.000432587
-0.000569688
-0.000767714
-0.00077925
-0.000605275
-0.000350942
0.000499726
0.000480512
0.000456968
0.000455652
0.000409946
0.000294175
0.000201593
0.000168003
0.000106158
-6.01256e-05
-0.00032508
-0.000453552
-0.000398564
-0.000414095
-0.000451027
-0.000536235
-0.00072167
-0.000766861
-0.000636152
-0.000402563
0.000492728
0.000472372
0.0004422
0.000434999
0.000389911
0.000276304
0.000177233
0.000131396
6.63102e-05
-6.66751e-05
-0.000305108
-0.000472934
-0.000430796
-0.000431279
-0.000472644
-0.000513867
-0.000672695
-0.000746158
-0.000651412
-0.000449112
0.000484626
0.000463843
0.00042723
0.000414086
0.000369795
0.000257751
0.000153842
9.98859e-05
2.76955e-05
-8.44378e-05
-0.000283673
-0.000478247
-0.000462825
-0.00044342
-0.000492789
-0.000505199
-0.000623197
-0.000717246
-0.000655153
-0.000486441
0.000475391
0.000454967
0.000412298
0.000392696
0.000349843
0.000239198
0.000130628
7.15486e-05
-5.8634e-06
-0.000109833
-0.000268186
-0.000469347
-0.00049102
-0.000454083
-0.000507101
-0.000510493
-0.000579173
-0.000679133
-0.000648682
-0.000514336
0.000465041
0.000445694
0.000397766
0.000370747
0.000329905
0.00022128
0.000107672
4.45259e-05
-3.33303e-05
-0.00013753
-0.000263981
-0.000451447
-0.000510358
-0.000465532
-0.000513058
-0.000525398
-0.000548437
-0.000634588
-0.000631083
-0.00053159
0.000453669
0.000435901
0.00038398
0.000348422
0.000309579
0.000204345
8.58764e-05
1.75932e-05
-5.69965e-05
-0.00016202
-0.00026989
-0.000432233
-0.000518302
-0.00047784
-0.000510755
-0.000541225
-0.00053559
-0.000591511
-0.000604303
-0.000536369
0.000441462
0.000425435
0.000371143
0.000326122
0.000288536
0.000188273
6.6083e-05
-8.88747e-06
-7.99188e-05
-0.000180602
-0.000280111
-0.000419494
-0.000517254
-0.000488792
-0.00050301
-0.000550086
-0.000538119
-0.000558378
-0.000573802
-0.000530149
0.000428688
0.000414155
0.000359254
0.000304391
0.000266627
0.000172699
4.84058e-05
-3.31268e-05
-0.000103957
-0.000196429
-0.000288567
-0.00041401
-0.00051268
-0.000496485
-0.000492955
-0.000546962
-0.000547667
-0.000540361
-0.000546697
-0.000518048
0.000415646
0.000401975
0.000348116
0.000283875
0.000243923
0.000157395
3.22139e-05
-5.39617e-05
-0.000127612
-0.000213785
-0.00029236
-0.000410123
-0.000510848
-0.000502074
-0.000482944
-0.000531217
-0.000554529
-0.000537415
-0.000529365
-0.000507106
0.000402656
0.000388935
0.000337396
0.000265195
0.00022069
0.000142325
1.70013e-05
-7.21092e-05
-0.00014762
-0.000235103
-0.000295996
-0.000401813
-0.000511597
-0.000508908
-0.000475504
-0.000507177
-0.000550039
-0.000542457
-0.000524472
-0.000503682
0.000389987
0.000375208
0.000326717
0.000248799
0.000197321
0.000127341
3.14349e-06
-8.94805e-05
-0.000162052
-0.000257387
-0.000305219
-0.000386573
-0.000508904
-0.000519955
-0.000473541
-0.000481777
-0.000531365
-0.000546595
-0.000529354
-0.000509864
0.000377837
0.00036109
0.000315709
0.00023495
0.000174487
0.000111839
-8.4671e-06
-0.000107308
-0.000172139
-0.000275391
-0.000324192
-0.000370474
-0.000495923
-0.000532429
-0.000480013
-0.000461834
-0.000503007
-0.000542151
-0.000539064
-0.000523809
0.000366349
0.00034703
0.000304087
0.000223455
0.000153277
9.51886e-05
-1.7508e-05
-0.000125277
-0.000181519
-0.000284548
-0.000349843
-0.000362106
-0.000470013
-0.000539106
-0.000494558
-0.000453387
-0.000473642
-0.000526122
-0.000546928
-0.000542116
0.000355584
0.000333542
0.000291931
0.000213776
0.000134688
7.72446e-05
-2.42929e-05
-0.000141325
-0.000193959
-0.000284493
-0.000374088
-0.000369888
-0.000439255
-0.000531865
-0.000510814
-0.000457069
-0.000451721
-0.0005022
-0.000546541
-0.000559495
0.00034564
0.000321016
0.00027947
0.000205406
0.000119602
5.81793e-05
-3.03174e-05
-0.000152454
-0.000211167
-0.000281263
-0.000388168
-0.000391464
-0.000416537
-0.000511441
-0.000521108
-0.000467972
-0.000440585
-0.000476765
-0.000535496
-0.000570588
0.000336579
0.000309929
0.000267171
0.000197498
0.000108654
3.9548e-05
-3.81768e-05
-0.000157619
-0.000229641
-0.000281055
-0.000388378
-0.000416726
-0.000411178
-0.000487129
-0.00052285
-0.000481264
-0.000438778
-0.000453125
-0.00051385
-0.000570183
0.000328491
0.000300488
0.000255869
0.000189647
0.000100774
2.33327e-05
-4.83248e-05
-0.000159103
-0.000245637
-0.000287817
-0.000380093
-0.000434104
-0.000418878
-0.000465124
-0.000518804
-0.000501928
-0.000453846
-0.000439959
-0.000484147
-0.000555373
0.000321632
0.000292696
0.000246141
0.00018253
9.53012e-05
9.93766e-06
-5.97149e-05
-0.000158122
-0.000257616
-0.000301244
-0.000369888
-0.000441861
-0.000434044
-0.000441976
-0.000489031
-0.000506696
-0.000487031
-0.000470648
-0.000496275
-0.00055579
0.000316092
0.000286736
0.000238299
0.000176309
9.24385e-05
5.72496e-07
-7.17714e-05
-0.000155477
-0.000260978
-0.000317414
-0.000362339
-0.000438874
-0.000458713
-0.000449071
-0.000474189
-0.00049741
-0.000487139
-0.000463455
-0.00047276
-0.000533557
0.000311879
0.000282039
0.000231765
0.000169037
8.78631e-05
-6.605e-06
-8.52082e-05
-0.000160745
-0.000262527
-0.000332444
-0.000367503
-0.00043333
-0.000467873
-0.000457075
-0.000468314
-0.000495187
-0.000502511
-0.000490504
-0.000494929
-0.000543496
0.0106515
0.00599046
-0.000360483
-0.00537287
-0.00694878
-0.00611993
-0.00487294
-0.00409785
-0.00378354
-0.00365647
-0.00356651
-0.00344711
-0.00334776
-0.00329622
-0.00320481
-0.00308938
-0.00299958
-0.00291911
-0.00285526
-0.00279036
-0.00269448
-0.00258728
-0.00251255
-0.00244831
-0.00233372
-0.00221517
-0.00214685
-0.00206013
-0.00192982
-0.00181175
-0.00170481
-0.00157207
-0.00140602
-0.00122755
-0.00104156
-0.000847691
-0.000644213
-0.000429106
-0.000196535
4.49216e-05
0.000292788
0.000554272
0.000820068
0.00109066
0.00136696
0.00165879
0.00195704
0.00226501
0.00258188
0.00290858
0.00324609
0.00359226
0.00394997
0.00431914
0.00469806
0.00508889
0.00549545
0.00589889
0.0063137
0.00674304
0.0101426
0.00589871
-0.00031731
-0.00529096
-0.00689574
-0.00609443
-0.00485679
-0.00408627
-0.00377516
-0.00365011
-0.00356145
-0.00344285
-0.00334408
-0.00329311
-0.00320214
-0.00308699
-0.00299748
-0.00291725
-0.00285361
-0.00278892
-0.00269321
-0.00258611
-0.00251148
-0.00244739
-0.0023329
-0.0022144
-0.00214617
-0.00205955
-0.0019293
-0.00181129
-0.00170443
-0.00157175
-0.00140575
-0.00122732
-0.00104137
-0.000847536
-0.000644086
-0.000429005
-0.000196453
4.4988e-05
0.000292839
0.000554311
0.000820099
0.00109068
0.00136698
0.0016588
0.00195705
0.00226501
0.00258188
0.00290858
0.00324609
0.00359226
0.00394997
0.00431914
0.00469806
0.00508889
0.00549545
0.0058989
0.00631371
0.00674306
0.00967533
0.00580873
-0.000219868
-0.00512899
-0.0067985
-0.00606023
-0.00484337
-0.0040764
-0.00376646
-0.00364277
-0.00355558
-0.00343821
-0.00334033
-0.00329003
-0.00319952
-0.00308473
-0.00299554
-0.00291554
-0.0028521
-0.00278763
-0.00269207
-0.00258508
-0.00251055
-0.00244658
-0.00233217
-0.00221372
-0.00214558
-0.00205904
-0.00192882
-0.00181087
-0.00170408
-0.00157146
-0.0014055
-0.00122711
-0.00104119
-0.00084739
-0.000643969
-0.000428912
-0.000196377
4.50511e-05
0.000292888
0.00055435
0.00082013
0.0010907
0.00136699
0.00165881
0.00195705
0.00226502
0.00258189
0.00290859
0.00324609
0.00359226
0.00394997
0.00431914
0.00469806
0.00508889
0.00549545
0.0058989
0.00631371
0.00674311
0.00924142
0.00572129
-9.52669e-05
-0.00492777
-0.00666869
-0.00601356
-0.0048251
-0.00406292
-0.00375451
-0.00363261
-0.00354729
-0.0034317
-0.00333517
-0.00328581
-0.00319596
-0.00308173
-0.002993
-0.0029133
-0.00285012
-0.00278593
-0.00269063
-0.0025838
-0.00250939
-0.00244555
-0.00233125
-0.00221288
-0.00214485
-0.00205837
-0.0019282
-0.00181032
-0.00170361
-0.00157106
-0.00140515
-0.00122681
-0.00104094
-0.000847184
-0.000643803
-0.00042878
-0.000196269
4.51416e-05
0.00029296
0.000554408
0.000820175
0.00109074
0.00136702
0.00165883
0.00195707
0.00226503
0.00258189
0.00290859
0.00324609
0.00359226
0.00394997
0.00431914
0.00469806
0.00508889
0.00549545
0.00589891
0.00631373
0.00674317
0.00882152
0.00562584
3.30093e-05
-0.00471758
-0.00652813
-0.0059612
-0.00480464
-0.00404732
-0.00374
-0.00361974
-0.00353638
-0.0034229
-0.00332808
-0.00327985
-0.00319097
-0.00307766
-0.00298959
-0.00291023
-0.0028473
-0.00278349
-0.00268864
-0.00258212
-0.0025078
-0.00244407
-0.00232997
-0.00221178
-0.00214384
-0.00205741
-0.00192729
-0.00180951
-0.0017029
-0.00157043
-0.0014046
-0.00122634
-0.00104054
-0.000846852
-0.000643534
-0.000428565
-0.000196093
4.5289e-05
0.000293079
0.000554504
0.000820251
0.0010908
0.00136706
0.00165886
0.00195709
0.00226505
0.00258191
0.0029086
0.0032461
0.00359226
0.00394997
0.00431915
0.00469806
0.00508889
0.00549545
0.00589891
0.00631374
0.00674326
0.00841186
0.0055181
0.000158892
-0.0045052
-0.00638229
-0.00590596
-0.00478381
-0.00403124
-0.00372442
-0.00360555
-0.00352393
-0.0034125
-0.00331937
-0.00327223
-0.00318451
-0.00307247
-0.00298528
-0.0029063
-0.00284355
-0.00278016
-0.00268598
-0.00257993
-0.00250569
-0.00244202
-0.00232821
-0.00221031
-0.00214246
-0.00205603
-0.00192599
-0.00180833
-0.00170184
-0.00156948
-0.00140376
-0.0012256
-0.00103991
-0.00084632
-0.000643102
-0.000428219
-0.000195811
4.5527e-05
0.000293276
0.000554663
0.000820375
0.00109089
0.00136714
0.00165892
0.00195714
0.00226508
0.00258193
0.00290861
0.00324611
0.00359227
0.00394998
0.00431915
0.00469806
0.00508889
0.00549545
0.00589892
0.00631376
0.00674336
0.00801299
0.0053995
0.000282706
-0.00429083
-0.00623185
-0.00584823
-0.00476292
-0.00401506
-0.00370821
-0.00359062
-0.00351075
-0.00340132
-0.00330972
-0.00326347
-0.00317691
-0.00306637
-0.00298028
-0.0029017
-0.00283899
-0.00277594
-0.00268261
-0.00257723
-0.00250305
-0.00243936
-0.00232592
-0.00220842
-0.00214065
-0.0020542
-0.00192423
-0.00180671
-0.00170034
-0.00156812
-0.00140256
-0.00122454
-0.00103898
-0.000845521
-0.000642445
-0.000427692
-0.000195382
4.5888e-05
0.00029358
0.00055491
0.000820571
0.00109105
0.00136727
0.00165902
0.00195722
0.00226514
0.00258198
0.00290865
0.00324613
0.00359228
0.00394999
0.00431915
0.00469806
0.00508889
0.00549545
0.00589893
0.00631379
0.00674348
0.00762726
0.00527259
0.000404704
-0.00407494
-0.00607725
-0.00578799
-0.00474194
-0.00399884
-0.00369142
-0.00357504
-0.00349704
-0.00338968
-0.00329958
-0.00325406
-0.00316859
-0.00305962
-0.0029748
-0.00289669
-0.0028339
-0.00277105
-0.00267863
-0.00257408
-0.00249997
-0.00243617
-0.00232313
-0.00220612
-0.00213843
-0.00205192
-0.00192204
-0.00180464
-0.00169837
-0.00156632
-0.00140098
-0.00122314
-0.00103772
-0.000844417
-0.000641522
-0.000426946
-0.000194778