/*--------------------------------*- C++ -*----------------------------------*\
| =========                 |                                                 |
| \\      /  F ield         | OpenFOAM: The Open Source CFD Toolbox           |
|  \\    /   O peration     | Version:  v2012                                 |
|   \\  /    A nd           | Website:  www.openfoam.com                      |
|    \\/     M anipulation  |                                                 |
\*---------------------------------------------------------------------------*/
FoamFile
{
    version     2.0;
    format      ascii;
    class       surfaceScalarField;
    location    "0.5";
    object      phi;
}
// * * * * * * * * * * * * * * * * * * * * * * * * * * * * * * * * * * * * * //

dimensions      [0 3 -1 0 0 0 0];
oriented        oriented;


internalField   nonuniform List<scalar> 
15820
(
1.56945e-06
-1.44344e-07
1.56393e-06
1.97871e-07
1.57617e-06
-1.17625e-07
1.5781e-06
-7.92346e-08
1.58134e-06
-1.01773e-07
1.56516e-06
1.4137e-07
1.55707e-06
2.22707e-07
1.55619e-06
1.67666e-08
1.56216e-06
-1.51873e-08
1.56013e-06
-1.26135e-07
1.57468e-06
-4.95802e-09
1.56516e-06
-2.26484e-07
1.5811e-06
8.23079e-09
1.57213e-06
-1.14451e-07
1.57509e-06
-1.73547e-08
1.57309e-06
3.74493e-10
1.56925e-06
6.15136e-08
1.56509e-06
3.23288e-08
1.55379e-06
8.8367e-08
6.47942e-08
1.53532e-06
1.61649e-06
-1.46398e-07
1.61531e-06
1.99048e-07
1.62496e-06
-1.27275e-07
1.62909e-06
-8.33614e-08
1.62994e-06
-1.02625e-07
1.61919e-06
1.52123e-07
1.60513e-06
2.3677e-07
1.60829e-06
1.36061e-08
1.60853e-06
-1.54316e-08
1.61149e-06
-1.29092e-07
1.61895e-06
-1.2422e-08
1.61626e-06
-2.23793e-07
1.62361e-06
8.79446e-10
1.62493e-06
-1.15771e-07
1.61785e-06
-1.02708e-08
1.62646e-06
-8.24071e-09
1.61098e-06
7.69946e-08
1.61802e-06
2.52865e-08
1.5949e-06
1.11488e-07
6.45795e-08
1.59512e-06
1.66277e-06
-1.45132e-07
1.66832e-06
1.93493e-07
1.67238e-06
-1.31336e-07
1.68135e-06
-9.23304e-08
1.67742e-06
-9.8694e-08
1.67444e-06
1.55107e-07
1.65623e-06
2.54979e-07
1.66111e-06
8.7266e-09
1.65689e-06
-1.12105e-08
1.66298e-06
-1.35185e-07
1.66585e-06
-1.52903e-08
1.66834e-06
-2.26285e-07
1.67102e-06
-1.79824e-09
1.67719e-06
-1.21938e-07
1.66852e-06
-1.59972e-09
1.67595e-06
-1.56721e-08
1.66577e-06
8.71685e-08
1.66561e-06
2.54495e-08
1.65388e-06
1.23213e-07
7.5802e-08
1.64266e-06
1.71043e-06
-1.40403e-07
1.71994e-06
1.83988e-07
1.71965e-06
-1.3105e-07
1.73091e-06
-1.03586e-07
1.72487e-06
-9.26629e-08
1.72582e-06
1.54161e-07
1.70996e-06
2.70843e-07
1.71205e-06
6.63429e-09
1.70765e-06
-6.81053e-09
1.7127e-06
-1.40233e-07
1.71495e-06
-1.7544e-08
1.7181e-06
-2.2943e-07
1.72082e-06
-4.5271e-09
1.72654e-06
-1.27658e-07
1.72126e-06
3.68739e-09
1.72519e-06
-1.96066e-08
1.72069e-06
9.1667e-08
1.71663e-06
2.95127e-08
1.70989e-06
1.29958e-07
8.83561e-08
1.69733e-06
1.76126e-06
-1.33812e-07
1.77088e-06
1.74374e-07
1.76873e-06
-1.28904e-07
1.77889e-06
-1.13749e-07
1.77349e-06
-8.72571e-08
1.77521e-06
1.52441e-07
1.76485e-06
2.81202e-07
1.76366e-06
7.82649e-09
1.76006e-06
-3.21752e-09
1.76319e-06
-1.43365e-07
1.76527e-06
-1.96178e-08
1.76764e-06
-2.31805e-07
1.77066e-06
-7.54236e-09
1.7752e-06
-1.322e-07
1.77251e-06
6.37843e-09
1.77473e-06
-2.18256e-08
1.77314e-06
9.32585e-08
1.76815e-06
3.45023e-08
1.7637e-06
1.3441e-07
9.99794e-08
1.75207e-06
1.81566e-06
-1.27306e-07
1.82317e-06
1.66866e-07
1.82081e-06
-1.2655e-07
1.8282e-06
-1.21133e-07
1.82415e-06
-8.32128e-08
1.8258e-06
1.50791e-07
1.82052e-06
2.8648e-07
1.81788e-06
1.04735e-08
1.8145e-06
1.6126e-10
1.81608e-06
-1.4495e-07
1.81753e-06
-2.10667e-08
1.81879e-06
-2.33068e-07
1.82149e-06
-1.02373e-08
1.82483e-06
-1.35539e-07
1.82364e-06
7.56312e-09
1.82474e-06
-2.29257e-08
1.82506e-06
9.29432e-08
1.81972e-06
3.98425e-08
1.81719e-06
1.36936e-07
1.10475e-07
1.8067e-06
1.87283e-06
-1.21985e-07
1.87807e-06
1.61625e-07
1.87587e-06
-1.24355e-07
1.88052e-06
-1.25777e-07
1.8773e-06
-7.99967e-08
1.87922e-06
1.48875e-07
1.87751e-06
2.88188e-07
1.87501e-06
1.29716e-08
1.8715e-06
3.66599e-09
1.87186e-06
-1.45303e-07
1.87249e-06
-2.16954e-08
1.87247e-06
-2.33054e-07
1.87456e-06
-1.23213e-08
1.87652e-06
-1.37506e-07
1.87627e-06
7.81104e-09
1.87619e-06
-2.28437e-08
1.87798e-06
9.11551e-08
1.87236e-06
4.5465e-08
1.87149e-06
1.378e-07
1.19768e-07
1.8622e-06
1.93183e-06
-1.17963e-07
1.93567e-06
1.57777e-07
1.93339e-06
-1.2207e-07
1.93602e-06
-1.28412e-07
1.93301e-06
-7.69797e-08
1.9356e-06
1.46278e-07
1.93624e-06
2.8755e-07
1.93458e-06
1.46384e-08
1.93099e-06
7.2474e-09
1.93037e-06
-1.44679e-07
1.9302e-06
-2.1526e-08
1.92884e-06
-2.31695e-07
1.93034e-06
-1.38226e-08
1.93073e-06
-1.37897e-07
1.9312e-06
7.3479e-09
1.9298e-06
-2.14487e-08
1.93272e-06
8.82326e-08
1.92686e-06
5.13333e-08
1.92731e-06
1.37348e-07
1.27816e-07
1.91926e-06
1.99222e-06
-1.1486e-07
1.99558e-06
1.54416e-07
1.99295e-06
-1.19437e-07
1.99426e-06
-1.29723e-07
1.99111e-06
-7.38343e-08
1.99455e-06
1.42836e-07
1.99676e-06
2.85342e-07
1.996e-06
1.53968e-08
1.9925e-06
1.07491e-08
1.99117e-06
-1.43348e-07
1.99038e-06
-2.07391e-08
1.98768e-06
-2.28993e-07
1.98883e-06
-1.49657e-08
1.98751e-06
-1.36582e-07
1.98862e-06
6.23699e-09
1.98588e-06
-1.87024e-08
1.98964e-06
8.44733e-08
1.98359e-06
5.73832e-08
1.98497e-06
1.3596e-07
1.34617e-07
1.97817e-06
2.05402e-06
-1.12259e-07
2.05745e-06
1.5099e-07
2.05438e-06
-1.16372e-07
2.05481e-06
-1.30152e-07
2.05141e-06
-7.0437e-08
2.05564e-06
1.38605e-07
2.05894e-06
2.82051e-07
2.05893e-06
1.54008e-08
2.05565e-06
1.40332e-08
2.05383e-06
-1.41536e-07
2.05272e-06
-1.96241e-08
2.04873e-06
-2.25e-07
2.0498e-06
-1.60419e-08
2.04677e-06
-1.33549e-07
2.0485e-06
4.51061e-09
2.04448e-06
-1.46812e-08
2.04879e-06
8.01624e-08
2.04265e-06
6.35161e-08
2.04459e-06
1.34018e-07
1.40206e-07
2.03901e-06
2.11742e-06
-1.09876e-07
2.12115e-06
1.47267e-07
2.11769e-06
-1.1291e-07
2.1175e-06
-1.29965e-07
2.1138e-06
-6.6738e-08
2.11865e-06
1.33756e-07
2.1227e-06
2.77998e-07
2.12326e-06
1.4847e-08
2.12029e-06
1.6998e-08
2.11812e-06
-1.3937e-07
2.117e-06
-1.84988e-08
2.11179e-06
-2.19793e-07
2.11307e-06
-1.73151e-08
2.10842e-06
-1.28907e-07
2.1107e-06
2.229e-09
2.10557e-06
-9.54611e-09
2.11015e-06
7.55773e-08
2.10407e-06
6.96046e-08
2.1062e-06
1.31883e-07
1.44651e-07
2.10176e-06
2.18262e-06
-1.0756e-07
2.18669e-06
1.43195e-07
2.18291e-06
-1.09127e-07
2.18229e-06
-1.29345e-07
2.17827e-06
-6.27215e-08
2.18354e-06
1.28488e-07
2.18813e-06
2.73404e-07
2.18906e-06
1.39173e-08
2.18649e-06
1.95702e-08
2.18399e-06
-1.36876e-07
2.18313e-06
-1.76389e-08
2.17681e-06
-2.13473e-07
2.17847e-06
-1.89733e-08
2.17241e-06
-1.22845e-07
2.17516e-06
-5.16738e-10
2.16912e-06
-3.51448e-09
2.17372e-06
7.09844e-08
2.16783e-06
7.54922e-08
2.16986e-06
1.29855e-07
1.48044e-07
2.16646e-06
2.24973e-06
-1.05234e-07
2.25414e-06
1.38791e-07
2.2501e-06
-1.05091e-07
2.24919e-06
-1.28438e-07
2.24488e-06
-5.84068e-08
2.25039e-06
1.22977e-07
2.25537e-06
2.68424e-07
2.25651e-06
1.27747e-08
2.25439e-06
2.16963e-08
2.25152e-06
-1.34007e-07
2.25112e-06
-1.72454e-08
2.2438e-06
-2.06152e-07
2.24595e-06
-2.11197e-08
2.2387e-06
-1.156e-07
2.24179e-06
-3.60663e-09
2.23513e-06
3.1478e-09
2.23948e-06
6.66376e-08
2.23397e-06
8.09968e-08
2.23567e-06
1.28156e-07
1.50489e-07
2.23323e-06
2.31888e-06
-1.02862e-07
2.32357e-06
1.34097e-07
2.31933e-06
-1.00847e-07
2.31825e-06
-1.27361e-07
2.31369e-06
-5.38459e-08
2.31931e-06
1.17355e-07
2.32458e-06
2.63156e-07
2.32578e-06
1.15692e-08
2.32415e-06
2.33327e-08
2.32082e-06
-1.30682e-07
2.32101e-06
-1.74365e-08
2.31281e-06
-1.97946e-07
2.31547e-06
-2.37806e-08
2.30729e-06
-1.07426e-07
2.31058e-06
-6.8957e-09
2.30359e-06
1.01451e-08
2.30746e-06
6.27653e-08
2.30253e-06
8.59305e-08
2.30376e-06
1.2692e-07
1.52092e-07
2.30216e-06
2.39012e-06
-1.00424e-07
2.39507e-06
1.29155e-07
2.39065e-06
-9.64275e-08
2.38949e-06
-1.26203e-07
2.38475e-06
-4.91097e-08
2.39039e-06
1.11716e-07
2.39589e-06
2.57655e-07
2.39702e-06
1.04383e-08
2.39591e-06
2.4441e-08
2.39205e-06
-1.26819e-07
2.39287e-06
-1.82594e-08
2.38391e-06
-1.88982e-07
2.38704e-06
-2.69127e-08
2.3782e-06
-9.85827e-08
2.38152e-06
-1.02139e-08
2.3745e-06
1.71629e-08
2.37769e-06
5.95717e-08
2.3735e-06
9.01273e-08
2.37423e-06
1.2619e-07
1.5296e-07
2.37336e-06
2.46355e-06
-9.79112e-08
2.46871e-06
1.24003e-07
2.46413e-06
-9.18524e-08
2.46295e-06
-1.25016e-07
2.45811e-06
-4.42737e-08
2.4637e-06
1.06127e-07
2.46942e-06
2.51937e-07
2.47035e-06
9.50635e-09
2.4698e-06
2.49863e-08
2.46534e-06
-1.22359e-07
2.46679e-06
-1.97053e-08
2.4572e-06
-1.79393e-07
2.4607e-06
-3.04104e-08
2.45145e-06
-8.9339e-08
2.4546e-06
-1.33632e-08
2.44788e-06
2.38909e-08
2.45022e-06
5.72297e-08
2.44688e-06
9.34692e-08
2.44713e-06
1.25936e-07
1.53197e-07
2.44689e-06
2.53924e-06
-9.53212e-08
2.54457e-06
1.18671e-07
2.53986e-06
-8.71419e-08
2.53867e-06
-1.23826e-07
2.53381e-06
-3.94098e-08
2.53929e-06
1.00646e-07
2.54524e-06
2.4599e-07
2.54586e-06
8.88079e-09
2.5459e-06
2.49426e-08
2.54083e-06
-1.17282e-07
2.54284e-06
-2.17213e-08
2.53278e-06
-1.69329e-07
2.53648e-06
-3.41161e-08
2.52712e-06
-7.99728e-08
2.52988e-06
-1.61298e-08
2.52372e-06
3.00569e-08
2.52509e-06
5.58624e-08
2.52265e-06
9.59072e-08
2.52251e-06
1.26072e-07
1.52911e-07
2.5228e-06
2.61726e-06
-9.26548e-08
2.62274e-06
1.13188e-07
2.61791e-06
-8.2318e-08
2.61672e-06
-1.22632e-07
2.6119e-06
-3.4584e-08
2.61721e-06
9.53271e-08
2.62342e-06
2.39783e-07
2.62366e-06
8.64551e-09
2.6243e-06
2.4303e-08
2.61862e-06
-1.11606e-07
2.62112e-06
-2.42187e-08
2.61075e-06
-1.58956e-07
2.61446e-06
-3.78298e-08
2.60525e-06
-7.07661e-08
2.60742e-06
-1.82993e-08
2.60203e-06
3.5452e-08
2.60237e-06
5.55188e-08
2.6008e-06
9.74741e-08
2.6004e-06
1.26477e-07
1.52203e-07
2.60111e-06
2.69767e-06
-8.99153e-08
2.70328e-06
1.07579e-07
2.69837e-06
-7.74085e-08
2.69716e-06
-1.21419e-07
2.69243e-06
-2.98585e-08
2.69753e-06
9.0227e-08
2.70404e-06
2.33274e-07
2.70383e-06
8.85684e-09
2.70505e-06
2.30864e-08
2.69884e-06
-1.05395e-07
2.70169e-06
-2.70759e-08
2.6912e-06
-1.48464e-07
2.6947e-06
-4.13292e-08
2.68592e-06
-6.19832e-08
2.6873e-06
-1.9687e-08
2.68281e-06
3.99514e-08
2.68218e-06
5.61412e-08
2.68136e-06
9.82971e-08
2.68082e-06
1.27019e-07
1.5117e-07
2.68185e-06
2.78057e-06
-8.71082e-08
2.78628e-06
1.01872e-07
2.78131e-06
-7.2447e-08
2.78005e-06
-1.20158e-07
2.77549e-06
-2.52932e-08
2.78031e-06
8.54038e-08
2.78716e-06
2.26428e-07
2.78647e-06
9.54376e-09
2.78822e-06
2.1336e-08
2.78157e-06
-9.87446e-08
2.78464e-06
-3.01413e-08
2.77423e-06
-1.3806e-07
2.77729e-06
-4.4389e-08
2.76915e-06
-5.38444e-08
2.76964e-06
-2.01718e-08
2.76606e-06
4.35254e-08
2.76461e-06
5.75905e-08
2.76436e-06
9.85512e-08
2.7638e-06
1.27578e-07
1.49898e-07
2.76507e-06
2.86602e-06
-8.42398e-08
2.87179e-06
9.60971e-08
2.86682e-06
-6.74741e-08
2.86548e-06
-1.18814e-07
2.86113e-06
-2.09473e-08
2.86562e-06
8.09144e-08
2.87283e-06
2.19215e-07
2.87167e-06
1.07076e-08
2.87389e-06
1.91204e-08
2.86693e-06
-9.17859e-08
2.87003e-06
-3.32394e-08
2.85992e-06
-1.27954e-07
2.86234e-06
-4.68096e-08
2.855e-06
-4.65081e-08
2.85454e-06
-1.97069e-08
2.85182e-06
4.62393e-08
2.84974e-06
5.96711e-08
2.84988e-06
9.84188e-08
2.8494e-06
1.28052e-07
1.4846e-07
2.85084e-06
2.9541e-06
-8.13183e-08
2.95991e-06
9.0288e-08
2.95498e-06
-6.25361e-08
2.95351e-06
-1.17345e-07
2.94944e-06
-1.6878e-08
2.95354e-06
7.68102e-08
2.96113e-06
2.11623e-07
2.95952e-06
1.23205e-08
2.96211e-06
1.65341e-08
2.95499e-06
-8.46732e-08
2.95794e-06
-3.61826e-08
2.94833e-06
-1.18345e-07
2.94995e-06
-4.84331e-08
2.94349e-06
-4.00496e-08
2.94213e-06
-1.83388e-08
2.94013e-06
4.82349e-08
2.93763e-06
6.21715e-08
2.93799e-06
9.80585e-08
2.93767e-06
1.28369e-07
1.46916e-07
2.93922e-06
3.04491e-06
-7.83525e-08
3.05071e-06
8.44836e-08
3.04586e-06
-5.76844e-08
3.04422e-06
-1.15709e-07
3.04048e-06
-1.31385e-08
3.04416e-06
7.31314e-08
3.05212e-06
2.03662e-07
3.05012e-06
1.43271e-08
3.05296e-06
1.36936e-08
3.04586e-06
-7.75749e-08
3.04847e-06
-3.87899e-08
3.03952e-06
-1.09395e-07
3.04025e-06
-4.91659e-08
3.03465e-06
-3.4447e-08
3.03251e-06
-1.62047e-08
3.03105e-06
4.96951e-08
3.02833e-06
6.49001e-08
3.02879e-06
9.75893e-08
3.02869e-06
1.28476e-07
1.45314e-07
3.03029e-06
3.13851e-06
-7.53524e-08
3.14427e-06
7.87262e-08
3.13956e-06
-5.29737e-08
3.13771e-06
-1.13864e-07
3.13435e-06
-9.775e-09
3.13758e-06
6.99026e-08
3.14588e-06
1.95364e-07
3.14356e-06
1.66471e-08
3.14652e-06
1.07312e-08
3.1396e-06
-7.06617e-08
3.14171e-06
-4.0899e-08
3.13353e-06
-1.01216e-07
3.13336e-06
-4.8994e-08
3.12851e-06
-2.95916e-08
3.1258e-06
-1.34966e-08
3.12469e-06
5.07992e-08
3.12189e-06
6.77095e-08
3.12239e-06
9.70876e-08
3.12252e-06
1.28342e-07
1.43689e-07
3.12415e-06
3.235e-06
-7.23287e-08
3.24067e-06
7.30612e-08
3.23615e-06
-4.84598e-08
3.23406e-06
-1.1177e-07
3.23111e-06
-6.82287e-09
3.23388e-06
6.71286e-08
3.24246e-06
1.86786e-07
3.23993e-06
1.91809e-08
3.24287e-06
7.78452e-09
3.2363e-06
-6.4084e-08
3.23779e-06
-4.23933e-08
3.23041e-06
-9.38374e-08
3.22941e-06
-4.79958e-08
3.22513e-06
-2.53134e-08
3.22206e-06
-1.04202e-08
3.22116e-06
5.16985e-08
3.21837e-06
7.04943e-08
3.21886e-06
9.66034e-08
3.21925e-06
1.27951e-07
1.42064e-07
3.22088e-06
3.33447e-06
-6.92926e-08
3.34e-06
6.75352e-08
3.33573e-06
-4.41967e-08
3.33336e-06
-1.09398e-07
3.33084e-06
-4.30275e-09
3.33318e-06
6.47926e-08
3.34196e-06
1.78003e-07
3.33932e-06
2.18165e-08
3.34212e-06
4.98687e-09
3.336e-06
-5.7962e-08
3.33682e-06
-4.32104e-08
3.33019e-06
-8.72071e-08
3.32852e-06
-4.63276e-08
3.32463e-06
-2.1423e-08
3.32136e-06
-7.15083e-09
3.32056e-06
5.25e-08
3.31787e-06
7.31831e-08
3.3183e-06
9.61678e-08
3.31896e-06
1.27293e-07
1.40451e-07
3.32057e-06
3.43701e-06
-6.62555e-08
3.44235e-06
6.21943e-08
3.43838e-06
-4.02326e-08
3.43571e-06
-1.06729e-07
3.43363e-06
-2.21661e-09
3.43556e-06
6.28549e-08
3.44446e-06
1.6911e-07
3.44183e-06
2.44427e-08
3.44437e-06
2.44767e-09
3.43877e-06
-5.23649e-08
3.43892e-06
-4.33546e-08
3.43292e-06
-8.12122e-08
3.43076e-06
-4.41663e-08
3.4271e-06
-1.77595e-08
3.42375e-06
-3.80724e-09
3.42299e-06
5.32603e-08
3.42044e-06
7.57328e-08
3.42082e-06
9.57964e-08
3.42174e-06
1.2637e-07
1.38853e-07
3.42334e-06
3.5427e-06
-6.32285e-08
3.54781e-06
5.70815e-08
3.54419e-06
-3.66065e-08
3.54122e-06
-1.0376e-07
3.53955e-06
-5.45402e-10
3.54115e-06
6.12552e-08
3.55005e-06
1.60207e-07
3.54754e-06
2.69572e-08
3.54974e-06
2.48423e-10
3.54468e-06
-4.73137e-08
3.54422e-06
-4.28859e-08
3.53871e-06
-7.57078e-08
3.53622e-06
-4.16769e-08
3.53267e-06
-1.42051e-08
3.52932e-06
-4.56443e-10
3.52857e-06
5.40032e-08
3.5262e-06
7.81077e-08
3.52649e-06
9.55022e-08
3.52767e-06
1.25191e-07
1.3726e-07
3.52927e-06
3.65166e-06
-6.02223e-08
3.6565e-06
5.22344e-08
3.65324e-06
-3.3344e-08
3.64998e-06
-1.00505e-07
3.64869e-06
7.50106e-10
3.65003e-06
5.99186e-08
3.65884e-06
1.51394e-07
3.65652e-06
2.92756e-08
3.65833e-06
-1.5619e-09
3.6538e-06
-4.27844e-08
3.65281e-06
-4.18981e-08
3.64766e-06
-7.05524e-08
3.64497e-06
-3.89871e-08
3.64146e-06
-1.06918e-08
3.63812e-06
2.88373e-09
3.6374e-06
5.47166e-08
3.63522e-06
8.02895e-08
3.63543e-06
9.52902e-08
3.63685e-06
1.23769e-07
1.35655e-07
3.63846e-06
3.76397e-06
-5.72464e-08
3.76852e-06
4.76827e-08
3.76563e-06
-3.04532e-08
3.76212e-06
-9.6998e-08
3.76114e-06
1.72626e-09
3.7623e-06
5.87632e-08
3.77093e-06
1.42762e-07
3.76887e-06
3.13356e-08
3.77027e-06
-2.9628e-09
3.76622e-06
-3.87275e-08
3.76481e-06
-4.04878e-08
3.75988e-06
-6.56312e-08
3.75708e-06
-3.61797e-08
3.75358e-06
-7.19105e-09
3.75025e-06
6.20906e-09
3.74957e-06
5.53939e-08
3.74761e-06
8.22504e-08
3.74773e-06
9.51716e-08
3.74938e-06
1.22125e-07
1.34011e-07
3.75102e-06
3.87973e-06
-5.4309e-08
3.88397e-06
4.34447e-08
3.88144e-06
-2.79214e-08
3.87774e-06
-9.32931e-08
3.87701e-06
2.45008e-09
3.87807e-06
5.77082e-08
3.88644e-06
1.34384e-07
3.88467e-06
3.31055e-08
3.88568e-06
-3.96697e-09
3.88202e-06
-3.50737e-08
3.88028e-06
-3.87412e-08
3.87551e-06
-6.08646e-08
3.87262e-06
-3.32916e-08
3.86914e-06
-3.71061e-09
3.86582e-06
9.53621e-09
3.8652e-06
5.60137e-08
3.86348e-06
8.397e-08
3.86349e-06
9.51549e-08
3.86534e-06
1.20282e-07
1.32294e-07
3.86705e-06
3.99906e-06
-5.14165e-08
4.00298e-06
3.95279e-08
4.00078e-06
-2.57157e-08
3.99694e-06
-8.9459e-08
3.9964e-06
2.99534e-09
3.99743e-06
5.66776e-08
4.00549e-06
1.26317e-07
4.00402e-06
3.45787e-08
4.00466e-06
-4.60387e-09
4.00134e-06
-3.17575e-08
3.99932e-06
-3.67216e-08
3.99466e-06
-5.6207e-08
3.9917e-06
-3.03274e-08
3.98827e-06
-2.80967e-10
3.98492e-06
1.28879e-08
3.98438e-06
5.6554e-08
3.98291e-06
8.54359e-08
3.98283e-06
9.52325e-08
3.98484e-06
1.1828e-07
1.30473e-07
3.98666e-06
4.12206e-06
-4.85735e-08
4.12566e-06
3.59265e-08
4.12373e-06
-2.37829e-08
4.11985e-06
-8.55743e-08
4.11941e-06
3.43206e-09
4.12048e-06
5.56103e-08
4.1282e-06
1.18593e-07
4.12701e-06
3.57689e-08
4.12731e-06
-4.90464e-09
4.12428e-06
-2.87282e-08
4.12203e-06
-3.4472e-08
4.11745e-06
-5.16256e-08
4.11442e-06
-2.72918e-08
4.11106e-06
3.079e-09
4.10768e-06
1.62601e-08
4.10722e-06
5.70221e-08
4.10603e-06
8.66237e-08
4.10587e-06
9.539e-08
4.10799e-06
1.16165e-07
1.28518e-07
4.10994e-06
4.24884e-06
-4.57825e-08
4.25215e-06
3.26226e-08
4.25042e-06
-2.20527e-08
4.24656e-06
-8.1721e-08
4.24618e-06
3.81839e-09
4.24732e-06
5.44664e-08
4.25469e-06
1.11219e-07
4.25376e-06
3.67058e-08
4.25375e-06
-4.89451e-09
4.25098e-06
-2.59564e-08
4.24852e-06
-3.20123e-08
4.244e-06
-4.71066e-08
4.24089e-06
-2.41832e-08
4.23761e-06
6.35238e-09
4.23424e-06
1.96397e-08
4.23382e-06
5.7433e-08
4.23294e-06
8.75123e-08
4.23271e-06
9.56114e-08
4.2349e-06
1.13982e-07
1.26408e-07
4.23701e-06
4.37952e-06
-4.30444e-08
4.38255e-06
2.95868e-08
4.38094e-06
-2.0444e-08
4.37719e-06
-7.79732e-08
4.37682e-06
4.19043e-09
4.37805e-06
5.32346e-08
4.38509e-06
1.04183e-07
4.38438e-06
3.74187e-08
4.38407e-06
-4.58444e-09
4.38153e-06
-2.34236e-08
4.37889e-06
-2.93652e-08
4.37441e-06
-4.2625e-08
4.37123e-06
-2.1006e-08
4.36807e-06
9.51458e-09
4.36469e-06
2.30157e-08
4.36432e-06
5.78037e-08
4.36374e-06
8.80929e-08
4.36349e-06
9.58626e-08
4.36569e-06
1.11778e-07
1.24133e-07
4.36797e-06
4.5142e-06
-4.03586e-08
4.51701e-06
2.678e-08
4.51543e-06
-1.88699e-08
4.51185e-06
-7.43904e-08
4.51148e-06
4.55738e-09
4.51278e-06
5.19366e-08
4.51951e-06
9.74569e-08
4.519e-06
3.79276e-08
4.51839e-06
-3.97646e-09
4.51607e-06
-2.11004e-08
4.51327e-06
-2.65692e-08
4.5088e-06
-3.81539e-08
4.50556e-06
-1.77625e-08
4.50254e-06
1.25371e-08
4.49917e-06
2.63771e-08
4.49882e-06
5.81544e-08
4.49856e-06
8.83592e-08
4.49831e-06
9.611e-08
4.50049e-06
1.09593e-07
1.21694e-07
4.50293e-06
4.65302e-06
-3.77238e-08
4.65565e-06
2.41549e-08
4.65402e-06
-1.72455e-08
4.65064e-06
-7.10067e-08
4.6503e-06
4.8972e-09
4.65161e-06
5.06214e-08
4.65806e-06
9.101e-08
4.65776e-06
3.82325e-08
4.65685e-06
-3.06605e-09
4.65469e-06
-1.89459e-08
4.6518e-06
-2.36731e-08
4.64731e-06
-3.36649e-08
4.64401e-06
-1.44633e-08
4.64114e-06
1.54083e-08
4.63782e-06
2.96913e-08
4.63746e-06
5.85148e-08
4.63751e-06
8.83128e-08
4.6373e-06
9.63175e-08
4.63943e-06
1.07461e-07
1.19101e-07
4.64203e-06
4.7961e-06
-3.51385e-08
4.7986e-06
2.1658e-08
4.79685e-06
-1.54935e-08
4.79367e-06
-6.7825e-08
4.79341e-06
5.15797e-09
4.79468e-06
4.93496e-08
4.80086e-06
8.48266e-08
4.80078e-06
3.8316e-08
4.79956e-06
-1.84839e-09
4.79753e-06
-1.69113e-08
4.79458e-06
-2.07217e-08
4.79006e-06
-2.91492e-08
4.78671e-06
-1.11146e-08
4.78398e-06
1.81369e-08
4.78077e-06
3.29033e-08
4.78036e-06
5.892e-08
4.78071e-06
8.79667e-08
4.78059e-06
9.64405e-08
4.78264e-06
1.05407e-07
1.16373e-07
4.78537e-06
4.94358e-06
-3.26024e-08
4.946e-06
1.92359e-08
4.94406e-06
-1.35536e-08
4.94105e-06
-6.48141e-08
4.94094e-06
5.26662e-09
4.94212e-06
4.81716e-08
4.94803e-06
7.89186e-08
4.94819e-06
3.81574e-08
4.94668e-06
-3.43501e-10
4.9447e-06
-1.49288e-08
4.94173e-06
-1.77522e-08
4.9372e-06
-2.46153e-08
4.9338e-06
-7.71747e-09
4.93122e-06
2.0721e-08
4.92814e-06
3.59756e-08
4.92767e-06
5.93958e-08
4.9283e-06
8.73354e-08
4.92828e-06
9.64585e-08
4.93026e-06
1.03431e-07
1.13537e-07
4.93309e-06
5.09559e-06
-3.01175e-08
5.09798e-06
1.6841e-08
5.09582e-06
-1.13938e-08
5.09292e-06
-6.19062e-08
5.09304e-06
5.1389e-09
5.0941e-06
4.71147e-08
5.09969e-06
7.33329e-08
5.1001e-06
3.77389e-08
5.09836e-06
1.39744e-09
5.09635e-06
-1.29106e-08
5.0934e-06
-1.48059e-08
5.08885e-06
-2.00696e-08
5.08541e-06
-4.27639e-09
5.08298e-06
2.31511e-08
5.08008e-06
3.8881e-08
5.07951e-06
5.99597e-08
5.08039e-06
8.64601e-08
5.08054e-06
9.63094e-08
5.08242e-06
1.01547e-07
1.10621e-07
5.08534e-06
5.25227e-06
-2.76895e-08
5.25467e-06
1.44405e-08
5.25232e-06
-9.04003e-09
5.2494e-06
-5.89844e-08
5.24982e-06
4.7109e-09
5.25078e-06
4.61598e-08
5.25597e-06
6.81426e-08
5.25665e-06
3.70602e-08
5.25475e-06
3.29302e-09
5.25261e-06
-1.07666e-08
5.2497e-06
-1.18989e-08
5.24518e-06
-1.55514e-08
5.24169e-06
-7.82054e-10
5.23942e-06
2.54243e-08
5.23672e-06
4.15808e-08
5.23605e-06
6.06272e-08
5.23711e-06
8.53997e-08
5.2375e-06
9.59204e-08
5.23928e-06
9.97666e-08
1.07657e-07
5.24224e-06
5.41377e-06
-2.53283e-08
5.41619e-06
1.20272e-08
5.41374e-06
-6.59506e-09
5.41064e-06
-5.58771e-08
5.41139e-06
3.95583e-09
5.41232e-06
4.52333e-08
5.41704e-06
6.34244e-08
5.41794e-06
3.61567e-08
5.41598e-06
5.24999e-09
5.41366e-06
-8.44398e-09
5.41078e-06
-9.01663e-09
5.40632e-06
-1.1097e-08
5.40279e-06
2.75499e-09
5.40065e-06
2.75591e-08
5.3982e-06
4.40309e-08
5.39744e-06
6.13907e-08
5.39862e-06
8.42154e-08
5.39926e-06
9.52821e-08
5.40097e-06
9.8061e-08
1.04662e-07
5.40396e-06
5.58025e-06
-2.3047e-08
5.58266e-06
9.61953e-09
5.58025e-06
-4.18878e-09
5.5768e-06
-5.24277e-08
5.57786e-06
2.90356e-09
5.57887e-06
4.42234e-08
5.58306e-06
5.9229e-08
5.58411e-06
3.51038e-08
5.58218e-06
7.18345e-09
5.57967e-06
-5.93816e-09
5.57678e-06
-6.11862e-09
5.57242e-06
-6.74059e-09
5.56886e-06
6.31226e-09
5.56683e-06
2.95926e-08
5.56468e-06
4.61807e-08
5.56385e-06
6.22199e-08
5.56507e-06
8.29926e-08
5.56595e-06
9.44031e-08
5.56762e-06
9.63884e-08
1.01641e-07
5.57065e-06
5.75186e-06
-2.08625e-08
5.75422e-06
7.2605e-09
5.75199e-06
-1.96579e-09
5.7481e-06
-4.85305e-08
5.74934e-06
1.65832e-09
5.75056e-06
4.30039e-08
5.75423e-06
5.55618e-08
5.75532e-06
3.40067e-08
5.75348e-06
9.02894e-09
5.75082e-06
-3.27815e-09
5.74787e-06
-3.17257e-09
5.74362e-06
-2.48728e-09
5.74008e-06
9.85011e-09
5.73812e-06
3.15581e-08
5.73628e-06
4.80145e-08
5.73544e-06
6.3064e-08
5.73665e-06
8.1778e-08
5.73776e-06
9.3301e-08
5.7394e-06
9.4747e-08
9.85882e-08
5.74245e-06
5.92875e-06
-1.8793e-08
5.931e-06
5.00548e-09
5.92911e-06
-7.07726e-11
5.92472e-06
-4.41391e-08
5.92599e-06
3.90767e-10
5.92752e-06
4.14671e-08
5.93072e-06
5.2365e-08
5.93175e-06
3.29806e-08
5.93e-06
1.07703e-08
5.92726e-06
-5.34725e-10
5.92424e-06
-1.49223e-10
5.92009e-06
1.65752e-09
5.91659e-06
1.33527e-08
5.9147e-06
3.34497e-08
5.91315e-06
4.9561e-08
5.91234e-06
6.38799e-08
5.91358e-06
8.05383e-08
5.91486e-06
9.20134e-08
5.91643e-06
9.31769e-08
9.54997e-08
5.91952e-06
6.11109e-06
-1.68566e-08
6.11319e-06
2.91067e-09
6.11174e-06
1.3741e-09
6.10687e-06
-3.92689e-08
6.10794e-06
-6.81475e-10
6.10988e-06
3.95296e-08
6.11271e-06
4.95394e-08
6.11356e-06
3.2123e-08
6.1119e-06
1.24337e-08
6.10915e-06
2.22023e-09
6.10606e-06
2.93613e-09
6.102e-06
5.72106e-09
6.09856e-06
1.67857e-08
6.09674e-06
3.52786e-08
6.09545e-06
5.08449e-08
6.09472e-06
6.46079e-08
6.09596e-06
7.9303e-08
6.09747e-06
9.05073e-08
6.09891e-06
9.17354e-08
9.24023e-08
6.102e-06
6.29905e-06
-1.50699e-08
6.30094e-06
1.02132e-09
6.30001e-06
2.30233e-09
6.29476e-06
-3.40154e-08
6.29541e-06
-1.33624e-09
6.29776e-06
3.71794e-08
6.30035e-06
4.69538e-08
6.30098e-06
3.14865e-08
6.29933e-06
1.40847e-08
6.29663e-06
4.9222e-09
6.29351e-06
6.05522e-09
6.28953e-06
9.6994e-09
6.28617e-06
2.01449e-08
6.28438e-06
3.7072e-08
6.28337e-06
5.18568e-08
6.28277e-06
6.52063e-08
6.28392e-06
7.8156e-08
6.2857e-06
8.87261e-08
6.28701e-06
9.04212e-08
8.93776e-08
6.29004e-06
6.49279e-06
-1.34465e-08
6.49443e-06
-6.23927e-10
6.49401e-06
2.72789e-09
6.48857e-06
-2.85784e-08
6.48863e-06
-1.39149e-09
6.49129e-06
3.45137e-08
6.49378e-06
4.44634e-08
6.4942e-06
3.10696e-08
6.4925e-06
1.57889e-08
6.48985e-06
7.56406e-09
6.48676e-06
9.15089e-09
6.48288e-06
1.35756e-08
6.4796e-06
2.34227e-08
6.47782e-06
3.88603e-08
6.47707e-06
5.26004e-08
6.47663e-06
6.56507e-08
6.47764e-06
7.71469e-08
6.4797e-06
8.66592e-08
6.48097e-06
8.91555e-08
8.65592e-08
6.48379e-06
6.69248e-06
-1.19944e-08
6.69383e-06
-1.97311e-09
6.69385e-06
2.70733e-09
6.68849e-06
-2.32195e-08
6.68785e-06
-7.42623e-10
6.69061e-06
3.17472e-08
6.69317e-06
4.19079e-08
6.6934e-06
3.08421e-08
6.69159e-06
1.75911e-08
6.68897e-06
1.01827e-08
6.68598e-06
1.21472e-08
6.68223e-06
1.73246e-08
6.67903e-06
2.66264e-08
6.67726e-06
4.06268e-08
6.6767e-06
5.31548e-08
6.67649e-06
6.5862e-08
6.67731e-06
7.63311e-08
6.67963e-06
8.43363e-08
6.68098e-06
8.78049e-08
8.408e-08
6.68346e-06
6.89831e-06
-1.07156e-08
6.89931e-06
-2.97158e-09
6.89971e-06
2.30941e-09
6.8947e-06
-1.82074e-08
6.89331e-06
6.39913e-10
6.89591e-06
2.91511e-08
6.89863e-06
3.91918e-08
6.89877e-06
3.06997e-08
6.89683e-06
1.95312e-08
6.89418e-06
1.28319e-08
6.89134e-06
1.49849e-08
6.88774e-06
2.09269e-08
6.88465e-06
2.971e-08
6.8829e-06
4.23823e-08
6.88244e-06
5.36113e-08
6.88258e-06
6.57251e-08
6.88316e-06
7.57497e-08
6.88558e-06
8.19147e-08
6.88722e-06
8.61692e-08
8.1993e-08
6.88931e-06
7.11045e-06
-9.60629e-09
7.11108e-06
-3.59489e-09
7.11176e-06
1.6281e-09
7.10734e-06
-1.37858e-08
7.10526e-06
2.71618e-09
7.10741e-06
2.6999e-08
7.11028e-06
3.63201e-08
7.1105e-06
3.04847e-08
7.10843e-06
2.16006e-08
7.10565e-06
1.56079e-08
7.10299e-06
1.76491e-08
7.09961e-06
2.4305e-08
7.09667e-06
3.26548e-08
7.09495e-06
4.41028e-08
7.09449e-06
5.40624e-08
7.09504e-06
6.51804e-08
7.09546e-06
7.5327e-08
7.09776e-06
7.96196e-08
7.09981e-06
8.41193e-08
8.02245e-08
7.10158e-06
7.3291e-06
-8.65569e-09
7.32936e-06
-3.85639e-09
7.33021e-06
7.79614e-10
7.32655e-06
-1.01272e-08
7.3239e-06
5.35916e-09
7.32538e-06
2.55241e-08
7.32832e-06
3.33839e-08
7.32874e-06
3.00567e-08
7.3266e-06
2.37393e-08
7.32366e-06
1.85506e-08
7.32109e-06
2.0224e-08
7.318e-06
2.73894e-08
7.31524e-06
3.54167e-08
7.31361e-06
4.57312e-08
7.31308e-06
5.45951e-08
7.31401e-06
6.42544e-08
7.31449e-06
7.48419e-08
7.31645e-06
7.76614e-08
7.31887e-06
8.16972e-08
7.85905e-08
7.3205e-06
7.55443e-06
-7.84575e-09
7.55438e-06
-3.80562e-09
7.55526e-06
-1.01979e-10
7.55243e-06
-7.29209e-09
7.54944e-06
8.34985e-09
7.55011e-06
2.48561e-08
7.55293e-06
3.05622e-08
7.55364e-06
2.93431e-08
7.55157e-06
2.58144e-08
7.54845e-06
2.16638e-08
7.54586e-06
2.28147e-08
7.54308e-06
3.01684e-08
7.54054e-06
3.79566e-08
7.53909e-06
4.71896e-08
7.53844e-06
5.52359e-08
7.53963e-06
6.30711e-08
7.54045e-06
7.40197e-08
7.54195e-06
7.61616e-08
7.54456e-06
7.90854e-08
7.68784e-08
7.54627e-06
7.78667e-06
-7.15294e-09
7.78638e-06
-3.51852e-09
7.78717e-06
-8.89169e-10
7.78512e-06
-5.24402e-09
7.78205e-06
1.1418e-08
7.78189e-06
2.50164e-08
7.78433e-06
2.8122e-08
7.78536e-06
2.83087e-08
7.78353e-06
2.76528e-08
7.78027e-06
2.49179e-08
7.77758e-06
2.55044e-08
7.77506e-06
3.26946e-08
7.77274e-06
4.02718e-08
7.77153e-06
4.83964e-08
7.77084e-06
5.59302e-08
7.77208e-06
6.1831e-08
7.77344e-06
7.26539e-08
7.77458e-06
7.50304e-08
7.7771e-06
7.6562e-08
7.49582e-08
7.77902e-06
8.026e-06
-6.54959e-09
8.02557e-06
-3.08748e-09
8.02616e-06
-1.47499e-09
8.02478e-06
-3.87026e-09
8.02192e-06
1.42813e-08
8.02099e-06
2.59473e-08
8.02278e-06
2.63277e-08
8.02411e-06
2.69842e-08
8.02268e-06
2.90813e-08
8.01935e-06
2.82444e-08
8.01651e-06
2.83458e-08
8.01416e-06
3.50412e-08
8.01203e-06
4.24098e-08
8.01113e-06
4.92932e-08
8.01046e-06
5.65991e-08
8.01157e-06
6.072e-08
8.01351e-06
7.07182e-08
8.01462e-06
7.3922e-08
8.01677e-06
7.44093e-08
7.28551e-08
8.01887e-06
8.27266e-06
-6.00599e-09
8.27218e-06
-2.61007e-09
8.27247e-06
-1.76554e-09
8.27162e-06
-3.01779e-09
8.26922e-06
1.66755e-08
8.26763e-06
2.75441e-08
8.26861e-06
2.53495e-08
8.27008e-06
2.55102e-08
8.26918e-06
2.99771e-08
8.26595e-06
3.14812e-08
8.26292e-06
3.13695e-08
8.26067e-06
3.72923e-08
8.25865e-06
4.44291e-08
8.25802e-06
4.99212e-08
8.25751e-06
5.71125e-08
8.25834e-06
5.98914e-08
8.26067e-06
6.83917e-08
8.26203e-06
7.25612e-08
8.26386e-06
7.25777e-08
7.07119e-08
8.266e-06
8.52686e-06
-5.49196e-09
8.52643e-06
-2.18214e-09
8.52635e-06
-1.68701e-09
8.52586e-06
-2.52254e-09
8.52411e-06
1.84196e-08
8.52203e-06
2.96289e-08
8.52213e-06
2.52472e-08
8.52351e-06
2.41346e-08
8.52319e-06
3.02971e-08
8.52029e-06
3.43767e-08
8.51708e-06
3.45815e-08
8.51486e-06
3.95109e-08
8.51291e-06
4.63818e-08
8.51241e-06
5.04214e-08
8.5122e-06
5.73244e-08
8.51267e-06
5.94182e-08
8.51511e-06
6.59477e-08
8.51686e-06
7.08141e-08
8.51864e-06
7.07994e-08
6.8681e-08
8.52067e-06
8.78884e-06
-4.97989e-09
8.78854e-06
-1.88155e-09
8.78807e-06
-1.21271e-09
8.78775e-06
-2.20761e-09
8.78672e-06
1.94529e-08
8.78443e-06
3.19218e-08
8.78365e-06
2.60218e-08
8.78465e-06
2.31351e-08
8.78489e-06
3.00573e-08
8.78253e-06
3.67421e-08
8.77926e-06
3.78521e-08
8.77701e-06
4.17554e-08
8.77507e-06
4.83183e-08
8.77456e-06
5.09406e-08
8.7747e-06
5.71807e-08
8.77489e-06
5.92263e-08
8.77717e-06
6.36665e-08
8.7794e-06
6.85837e-08
8.78132e-06
6.8887e-08
6.67979e-08
8.7832e-06
9.05885e-06
-4.44844e-09
9.05873e-06
-1.75936e-09
9.05788e-06
-3.6581e-10
9.05758e-06
-1.89833e-09
9.05723e-06
1.97985e-08
9.05501e-06
3.41376e-08
9.05342e-06
2.76142e-08
9.05384e-06
2.27173e-08
9.05453e-06
2.93657e-08
9.05281e-06
3.84635e-08
9.04967e-06
4.09899e-08
9.04739e-06
4.40345e-08
9.04544e-06
5.02716e-08
9.04479e-06
5.1588e-08
9.04524e-06
5.67356e-08
9.04533e-06
5.9137e-08
9.04727e-06
6.17229e-08
9.04985e-06
6.6003e-08
9.05204e-06
6.66945e-08
6.4936e-08
9.05391e-06
9.33715e-06
-3.8848e-09
9.33722e-06
-1.8334e-09
9.33608e-06
7.79113e-10
9.33562e-06
-1.44061e-09
9.33586e-06
1.95533e-08
9.33396e-06
3.60409e-08
9.3317e-06
2.98718e-08
9.33142e-06
2.30008e-08
9.33234e-06
2.84452e-08
9.33134e-06
3.9464e-08
9.32851e-06
4.38226e-08
9.32625e-06
4.62919e-08
9.32431e-06
5.22127e-08
9.32343e-06
5.24698e-08
9.3241e-06
5.60598e-08
9.32428e-06
5.89576e-08
9.32582e-06
6.01855e-08
9.32848e-06
6.33396e-08
9.33099e-06
6.41876e-08
6.28877e-08
9.33304e-06
9.62399e-06
-3.28627e-09
9.62423e-06
-2.07359e-09
9.62292e-06
2.08991e-09
9.62218e-06
-6.99488e-10
9.62287e-06
1.88609e-08
9.62146e-06
3.74532e-08