/*--------------------------------*- C++ -*----------------------------------*\
| =========                 |                                                 |
| \\      /  F ield         | OpenFOAM: The Open Source CFD Toolbox           |
|  \\    /   O peration     | Version:  v2012                                 |
|   \\  /    A nd           | Website:  www.openfoam.com                      |
|    \\/     M anipulation  |                                                 |
\*---------------------------------------------------------------------------*/
FoamFile
{
    version     2.0;
    format      ascii;
    class       volVectorField;
    location    "0.5";
    object      U;
}
// * * * * * * * * * * * * * * * * * * * * * * * * * * * * * * * * * * * * * //

dimensions      [0 1 -1 0 0 0 0];


internalField   nonuniform List<vector> 
8000
(
(0.877572 -0.00143205 0)
(1.1176 0.00212023 0)
(0.887249 -0.00129522 0)
(1.11714 -0.00100373 0)
(0.905171 -0.00140149 0)
(1.10699 0.00200364 0)
(0.89927 0.00361253 0)
(1.0818 0.000297699 0)
(0.911592 -0.000216443 0)
(1.07709 -0.00273441 0)
(0.920359 0.000179847 0)
(1.08513 -0.00591365 0)
(0.917735 0.000550497 0)
(1.09579 -0.00359294 0)
(0.915832 -0.0005288 0)
(1.09226 6.90216e-06 0)
(0.917862 0.00210856 0)
(1.08185 0.00139473 0)
(0.914647 0.00352793 0)
(1.06807 0.00295867 0)
(0.892058 -0.00146958 0)
(1.10245 0.00218397 0)
(0.905928 -0.00146188 0)
(1.09975 -0.00103569 0)
(0.924917 -0.00146455 0)
(1.08809 0.00225559 0)
(0.924487 0.00381555 0)
(1.05822 0.000296465 0)
(0.939062 -0.000330462 0)
(1.04914 -0.00270169 0)
(0.951068 -0.000293659 0)
(1.05114 -0.00569661 0)
(0.953945 3.54068e-05 0)
(1.05385 -0.00344721 0)
(0.961772 -0.000511955 0)
(1.04096 -9.66109e-05 0)
(0.974362 0.00286653 0)
(1.02017 0.00105374 0)
(0.982586 0.00499223 0)
(0.994877 0.00259606 0)
(0.916591 -0.00147594 0)
(1.07604 0.00216721 0)
(0.934041 -0.00155833 0)
(1.07108 -0.00112608 0)
(0.953774 -0.00143568 0)
(1.05861 0.00238934 0)
(0.957884 0.00411024 0)
(1.02963 0.000197473 0)
(0.969245 -0.000271969 0)
(1.0202 -0.00285673 0)
(0.97996 -0.000345747 0)
(1.02128 -0.00575116 0)
(0.984224 -3.60323e-05 0)
(1.02308 -0.00358509 0)
(0.992892 -0.000187273 0)
(1.01318 -0.000447084 0)
(0.999698 0.00325948 0)
(1.00246 0.00104036 0)
(0.997601 0.00542024 0)
(0.991694 0.00344743 0)
(0.943825 -0.00143931 0)
(1.04723 0.00207326 0)
(0.960863 -0.00157151 0)
(1.04187 -0.0012699 0)
(0.978215 -0.00134572 0)
(1.03162 0.00238639 0)
(0.982579 0.0044062 0)
(1.01015 0.000122985 0)
(0.987012 -0.000175731 0)
(1.00373 -0.00298617 0)
(0.993583 -0.000383586 0)
(1.00637 -0.00583803 0)
(0.996319 -6.94654e-05 0)
(1.01011 -0.00381122 0)
(1.00261 8.20537e-05 0)
(1.00555 -0.0006549 0)
(1.00461 0.00350804 0)
(1.00166 0.00116102 0)
(0.999181 0.00575483 0)
(0.995384 0.00422137 0)
(0.967083 -0.00137556 0)
(1.02403 0.00195713 0)
(0.980061 -0.00154881 0)
(1.0202 -0.00141954 0)
(0.992454 -0.00126035 0)
(1.01382 0.00235132 0)
(0.994951 0.00462867 0)
(1.00137 0.000122523 0)
(0.993977 -9.73924e-05 0)
(0.997278 -0.00306571 0)
(0.997245 -0.000438058 0)
(1.00034 -0.00589502 0)
(0.998452 -0.00016478 0)
(1.00466 -0.0039534 0)
(1.00315 0.000214445 0)
(1.00282 -0.000770466 0)
(1.00387 0.00366274 0)
(1.00138 0.00133096 0)
(0.999037 0.00607174 0)
(0.996471 0.00483166 0)
(0.983159 -0.00130663 0)
(1.00959 0.001859 0)
(0.99104 -0.00152071 0)
(1.00778 -0.00153528 0)
(0.998204 -0.00119602 0)
(1.00455 0.00232593 0)
(0.99928 0.00475674 0)
(0.998959 0.000166323 0)
(0.996214 -3.04749e-05 0)
(0.9956 -0.00311305 0)
(0.997488 -0.000480408 0)
(0.99793 -0.00594071 0)
(0.997482 -0.000250074 0)
(1.00156 -0.00405627 0)
(1.00118 0.000246611 0)
(1.00059 -0.000815954 0)
(1.00176 0.00368058 0)
(1.00012 0.0015496 0)
(0.998118 0.00625595 0)
(0.996323 0.00535617 0)
(0.992366 -0.00124748 0)
(1.00258 0.00179044 0)
(0.996289 -0.00149445 0)
(1.00209 -0.00160942 0)
(0.999461 -0.00114768 0)
(1.00046 0.00230177 0)
(1.00025 0.00481113 0)
(0.99917 0.000216946 0)
(0.997321 3.82553e-05 0)
(0.995856 -0.00313285 0)
(0.997297 -0.000504427 0)
(0.997065 -0.00595825 0)
(0.996196 -0.000312503 0)
(0.9995 -0.00414553 0)
(0.999005 0.000267916 0)
(0.998567 -0.000826393 0)
(0.999523 0.00360265 0)
(0.998512 0.00179662 0)
(0.996908 0.00632455 0)
(0.995735 0.00583012 0)
(0.996793 -0.00120221 0)
(0.999993 0.00174368 0)
(0.998517 -0.00146815 0)
(0.999969 -0.00165265 0)
(0.999133 -0.00110581 0)
(0.998844 0.00226862 0)
(1.00037 0.00481769 0)
(1.00013 0.000255702 0)
(0.998385 0.000109868 0)
(0.996826 -0.0031289 0)
(0.997485 -0.000508631 0)
(0.996915 -0.00594024 0)
(0.995389 -0.000362099 0)
(0.998129 -0.00418611 0)
(0.997288 0.000271833 0)
(0.996894 -0.000804074 0)
(0.99764 0.00349057 0)
(0.99697 0.00205987 0)
(0.995791 0.0063197 0)
(0.995071 0.00625595 0)
(0.998605 -0.00116801 0)
(0.999361 0.00170659 0)
(0.999462 -0.00143885 0)
(0.99929 -0.00167579 0)
(0.998529 -0.00106319 0)
(0.998195 0.0022226 0)
(1.00044 0.00479244 0)
(1.00107 0.000276813 0)
(0.999444 0.000180977 0)
(0.997909 -0.0031068 0)
(0.998031 -0.000494858 0)
(0.997072 -0.00588989 0)
(0.995081 -0.000398288 0)
(0.997261 -0.00416939 0)
(0.996099 0.000241753 0)
(0.995631 -0.000733101 0)
(0.996222 0.00335816 0)
(0.995675 0.00232268 0)
(0.994892 0.00626567 0)
(0.994496 0.00662619 0)
(0.999257 -0.00114039 0)
(0.999348 0.00167068 0)
(0.999939 -0.00140462 0)
(0.999079 -0.00168569 0)
(0.998027 -0.00101727 0)
(0.997866 0.00216303 0)
(1.00054 0.00474501 0)
(1.00176 0.000282118 0)
(1.00034 0.000248972 0)
(0.998827 -0.00307233 0)
(0.998702 -0.000470389 0)
(0.997344 -0.00580508 0)
(0.99508 -0.000426105 0)
(0.996761 -0.00410119 0)
(0.995333 0.000187813 0)
(0.994732 -0.000606713 0)
(0.99521 0.00319547 0)
(0.994661 0.00258115 0)
(0.994196 0.00618536 0)
(0.994038 0.00693681 0)
(0.999482 -0.00111587 0)
(0.99944 0.00163199 0)
(1.00024 -0.00136536 0)
(0.999 -0.00168651 0)
(0.997676 -0.000967336 0)
(0.997629 0.00209207 0)
(1.00061 0.00468238 0)
(1.00215 0.000275647 0)
(1.00098 0.000311423 0)
(0.999501 -0.00303004 0)
(0.999307 -0.000441457 0)
(0.997644 -0.00568726 0)
(0.995213 -0.000456801 0)
(0.996513 -0.00398101 0)
(0.994876 0.000116187 0)
(0.994116 -0.000436363 0)
(0.994514 0.00301095 0)
(0.993902 0.00284077 0)
(0.993659 0.00609445 0)
(0.993673 0.00718461 0)
(0.999571 -0.0010925 0)
(0.999507 0.00158937 0)
(1.00046 -0.00132189 0)
(0.998969 -0.00168087 0)
(0.997449 -0.000912932 0)
(0.997436 0.00201309 0)
(1.0006 0.00460929 0)
(1.00233 0.000260808 0)
(1.00139 0.000366814 0)
(0.999954 -0.00298136 0)
(0.999759 -0.000415386 0)
(0.997928 -0.00553932 0)
(0.995384 -0.000498115 0)
(0.996421 -0.00381299 0)
(0.994642 2.69312e-05 0)
(0.99371 -0.000232242 0)
(0.994054 0.00282426 0)
(0.993365 0.00309687 0)
(0.993251 0.00600259 0)
(0.993389 0.00737403 0)
(0.999617 -0.00106928 0)
(0.999542 0.00154286 0)
(1.00061 -0.00127511 0)
(0.998968 -0.00167072 0)
(0.997318 -0.000853986 0)
(0.997294 0.00192931 0)
(1.00054 0.00452874 0)
(1.00236 0.00024091 0)
(1.0016 0.000412475 0)
(1.00024 -0.00292457 0)
(1.00005 -0.000400054 0)
(0.998173 -0.00536333 0)
(0.995553 -0.000552077 0)
(0.996412 -0.00360592 0)
(0.994564 -7.03092e-05 0)
(0.993462 1.4891e-06 0)
(0.993771 0.00264659 0)
(0.993019 0.00333776 0)
(0.992965 0.00592128 0)
(0.993193 0.00751438 0)
(0.999645 -0.00104572 0)
(0.999559 0.0014929 0)
(1.0007 -0.00122565 0)
(0.998984 -0.00165774 0)
(0.997259 -0.000791033 0)
(0.997212 0.00184294 0)
(1.00045 0.00444304 0)
(1.00232 0.000218514 0)
(1.0017 0.00044984 0)
(1.00042 -0.00285828 0)
(1.0002 -0.000398475 0)
(0.998364 -0.00516173 0)
(0.995711 -0.000621399 0)
(0.996438 -0.00336806 0)
(0.994588 -0.00017716 0)
(0.993332 0.000254777 0)
(0.99362 0.0024853 0)
(0.992839 0.00355405 0)
(0.992798 0.0058601 0)
(0.993095 0.00761252 0)
(0.999664 -0.00102157 0)
(0.999567 0.00144001 0)
(1.00074 -0.0011739 0)
(0.999008 -0.00164332 0)
(0.99725 -0.000725018 0)
(0.997188 0.00175572 0)
(1.00037 0.00435328 0)
(1.00225 0.000196294 0)
(1.00172 0.000478451 0)
(1.00052 -0.00278101 0)
(1.00026 -0.000411258 0)
(0.998498 -0.00493836 0)
(0.995857 -0.000705348 0)
(0.996472 -0.0031071 0)
(0.994673 -0.000291534 0)
(0.99329 0.000510669 0)
(0.993568 0.00234858 0)
(0.992794 0.00374 0)
(0.992743 0.00582337 0)
(0.993096 0.00767285 0)
(0.999678 -0.000996686 0)
(0.99957 0.00138463 0)
(1.00075 -0.00112021 0)
(0.999033 -0.00162813 0)
(0.997274 -0.000657274 0)
(0.99721 0.00166923 0)
(1.00029 0.00425953 0)
(1.00216 0.000177468 0)
(1.00169 0.000494688 0)
(1.00058 -0.00269021 0)
(1.00026 -0.000439872 0)
(0.998581 -0.00469797 0)
(0.99599 -0.000799099 0)
(0.996504 -0.00283152 0)
(0.994788 -0.000401253 0)
(0.993314 0.000759575 0)
(0.993587 0.00224372 0)
(0.992851 0.00389126 0)
(0.992785 0.00580983 0)
(0.993182 0.00769962 0)
(0.99969 -0.000971015 0)
(0.999572 0.00132708 0)
(1.00074 -0.00106479 0)
(0.999056 -0.00161289 0)
(0.997317 -0.000588395 0)
(0.997263 0.00158361 0)
(1.00023 0.00416237 0)
(1.00208 0.000164308 0)
(1.00164 0.000499166 0)
(1.00061 -0.00258502 0)
(1.00023 -0.000484196 0)
(0.998628 -0.0044437 0)
(0.996111 -0.000900688 0)
(0.99653 -0.0025486 0)
(0.994918 -0.000500734 0)
(0.993384 0.000990331 0)
(0.993656 0.00217673 0)
(0.99298 0.00400615 0)
(0.992899 0.00581498 0)
(0.993331 0.00769825 0)
(0.999701 -0.000944554 0)
(0.999573 0.00126764 0)
(1.00072 -0.00100775 0)
(0.999079 -0.00159771 0)
(0.99737 -0.000519548 0)
(0.997335 0.00150023 0)
(1.00018 0.00406095 0)
(1.00199 0.000157009 0)
(1.00158 0.000491607 0)
(1.00061 -0.00246699 0)
(1.00019 -0.000540287 0)
(0.998651 -0.00417971 0)
(0.996221 -0.00100571 0)
(0.996555 -0.00226554 0)
(0.995054 -0.00057896 0)
(0.993485 0.0011937 0)
(0.993758 0.00215031 0)
(0.993153 0.00408613 0)
(0.993064 0.00583348 0)
(0.993522 0.00767385 0)
(0.999712 -0.000917345 0)
(0.999575 0.00120674 0)
(1.00069 -0.00094958 0)
(0.9991 -0.00158223 0)
(0.997429 -0.000451919 0)
(0.997418 0.00142007 0)
(1.00014 0.00395449 0)
(1.00191 0.000156181 0)
(1.00152 0.000471812 0)
(1.0006 -0.00233655 0)
(1.00015 -0.000604759 0)
(0.998661 -0.00391144 0)
(0.996321 -0.00110731 0)
(0.996581 -0.0019901 0)
(0.995195 -0.000636659 0)
(0.993606 0.00136214 0)
(0.993882 0.00216255 0)
(0.993354 0.00413461 0)
(0.99326 0.00585857 0)
(0.993736 0.00763012 0)
(0.999723 -0.000889409 0)
(0.999577 0.00114464 0)
(1.00066 -0.000890603 0)
(0.999121 -0.00156643 0)
(0.997491 -0.000386441 0)
(0.997506 0.00134345 0)
(1.00011 0.00384322 0)
(1.00183 0.000163666 0)
(1.00145 0.00044137 0)
(1.00059 -0.00219497 0)
(1.00011 -0.000677041 0)
(0.998665 -0.00364229 0)
(0.996413 -0.00120058 0)
(0.99661 -0.00173347 0)
(0.995339 -0.000667587 0)
(0.993742 0.00149663 0)
(0.994018 0.00220908 0)
(0.993569 0.00415764 0)
(0.993473 0.00588534 0)
(0.993961 0.00757188 0)
(0.999734 -0.000860811 0)
(0.99958 0.00108159 0)
(1.00062 -0.000831224 0)
(0.999143 -0.0015497 0)
(0.997554 -0.000323517 0)
(0.997597 0.00127227 0)
(1.00007 0.00372534 0)
(1.00175 0.000181766 0)
(1.00139 0.000400986 0)
(1.00056 -0.00204591 0)
(1.00007 -0.000751438 0)
(0.998665 -0.00337909 0)
(0.996501 -0.00127772 0)
(0.996643 -0.00150259 0)
(0.995487 -0.000662766 0)
(0.99389 0.00160193 0)
(0.994161 0.00228209 0)
(0.993791 0.00416208 0)
(0.993695 0.00591057 0)
(0.994188 0.00750386 0)
(0.999745 -0.000831648 0)
(0.999584 0.00101804 0)
(1.00059 -0.000771882 0)
(0.999165 -0.00153174 0)
(0.997618 -0.000263643 0)
(0.997688 0.00120671 0)
(1.00004 0.00360062 0)
(1.00167 0.000209168 0)
(1.00132 0.000351939 0)
(1.00053 -0.00189175 0)
(1.00003 -0.000823435 0)
(0.998663 -0.00312785 0)
(0.996586 -0.00133259 0)
(0.996681 -0.00129785 0)
(0.995637 -0.000630726 0)
(0.994047 0.00168132 0)
(0.994308 0.00237311 0)
(0.994018 0.00415403 0)
(0.99392 0.00593027 0)
(0.994413 0.00742878 0)
(0.999755 -0.000801969 0)
(0.999589 0.000954337 0)
(1.00055 -0.000713383 0)
(0.999188 -0.00151183 0)
(0.997683 -0.000208484 0)
(0.997779 0.00114736 0)
(1.00001 0.00346944 0)
(1.00159 0.000241897 0)
(1.00126 0.000297429 0)
(1.0005 -0.00173714 0)
(0.999991 -0.000890925 0)
(0.99866 -0.00289132 0)
(0.99667 -0.00136257 0)
(0.996724 -0.00111927 0)
(0.995789 -0.000569871 0)
(0.994213 0.00174156 0)
(0.994456 0.00247511 0)
(0.994247 0.00413834 0)
(0.994148 0.0059416 0)
(0.994634 0.00734974 0)
(0.999766 -0.000771924 0)
(0.999595 0.000890862 0)
(1.00051 -0.000656356 0)
(0.99921 -0.00148919 0)
(0.997748 -0.000158598 0)
(0.99787 0.0010954 0)
(0.999988 0.00333172 0)
(1.00151 0.000282305 0)
(1.0012 0.000239111 0)
(1.00047 -0.00158559 0)
(0.999955 -0.000945517 0)
(0.998657 -0.00267527 0)
(0.996752 -0.00136805 0)
(0.996772 -0.000964223 0)
(0.995941 -0.000487992 0)
(0.994386 0.00178776 0)
(0.994606 0.00258183 0)
(0.994477 0.00411834 0)
(0.994378 0.00594212 0)
(0.994851 0.00726869 0)
(0.999777 -0.000741536 0)
(0.999603 0.000828092 0)
(1.00048 -0.000601319 0)
(0.999233 -0.00146341 0)
(0.997814 -0.000114792 0)
(0.997959 0.0010505 0)
(0.999964 0.00318983 0)
(1.00143 0.00032846 0)
(1.00115 0.000179767 0)
(1.00044 -0.00143931 0)
(0.99992 -0.000984981 0)
(0.998654 -0.00248087 0)
(0.996834 -0.00135005 0)
(0.996824 -0.000828487 0)
(0.996093 -0.000393307 0)
(0.994567 0.00182496 0)
(0.994756 0.00268964 0)
(0.994706 0.00409785 0)
(0.99461 0.0059308 0)
(0.995065 0.0071867 0)
(0.999787 -0.000711029 0)
(0.999611 0.000766876 0)
(1.00044 -0.000549238 0)
(0.999256 -0.00143395 0)
(0.99788 -7.69686e-05 0)
(0.998046 0.00101198 0)
(0.999943 0.0030444 0)
(1.00135 0.000375981 0)
(1.0011 0.000123623 0)
(1.00041 -0.00130406 0)
(0.999885 -0.00100944 0)
(0.998652 -0.00230579 0)
(0.996916 -0.0013105 0)
(0.996881 -0.000706382 0)
(0.996244 -0.000287406 0)
(0.994753 0.00185707 0)
(0.994906 0.0027947 0)
(0.994934 0.00407882 0)
(0.994845 0.00590736 0)
(0.995274 0.00710475 0)
(0.999798 -0.000680438 0)
(0.99962 0.000707332 0)
(1.00041 -0.000500741 0)
(0.999278 -0.00140067 0)
(0.997946 -4.51829e-05 0)
(0.998132 0.000980202 0)
(0.999924 0.00289533 0)
(1.00127 0.0004247 0)
(1.00104 7.06028e-05 0)
(1.00037 -0.00118071 0)
(0.99985 -0.00101788 0)
(0.998651 -0.0021475 0)
(0.996997 -0.00125493 0)
(0.996942 -0.000593361 0)
(0.996394 -0.000179123 0)
(0.994944 0.00188587 0)
(0.995057 0.00289467 0)
(0.99516 0.00406256 0)
(0.995081 0.00587251 0)
(0.995479 0.00702414 0)
(0.999809 -0.000649816 0)
(0.99963 0.000649865 0)
(1.00037 -0.000455942 0)
(0.9993 -0.00136359 0)
(0.998013 -1.9514e-05 0)
(0.998216 0.00095398 0)
(0.999908 0.00274596 0)
(1.00119 0.000471272 0)
(1.00099 2.30762e-05 0)
(1.00034 -0.00106937 0)
(0.999816 -0.00101148 0)
(0.998652 -0.00200227 0)
(0.997078 -0.00118901 0)
(0.997006 -0.000485047 0)
(0.996544 -7.1425e-05 0)
(0.99514 0.00191338 0)
(0.995209 0.00298906 0)
(0.995382 0.00405022 0)
(0.995318 0.00582699 0)
(0.99568 0.0069451 0)
(0.999819 -0.000619558 0)
(0.999641 0.00059563 0)
(1.00034 -0.000415144 0)
(0.999321 -0.00132281 0)
(0.998079 8.56687e-07 0)
(0.998297 0.000932071 0)
(0.999894 0.00259784 0)
(1.00111 0.000513996 0)
(1.00094 -1.62368e-05 0)
(1.00031 -0.000968562 0)
(0.999782 -0.000992483 0)
(0.998654 -0.0018677 0)
(0.99716 -0.00111708 0)
(0.997074 -0.000377976 0)
(0.996692 3.65408e-05 0)
(0.99534 0.00194055 0)
(0.995362 0.00307745 0)
(0.995599 0.00404116 0)
(0.995557 0.00576938 0)
(0.995878 0.00686609 0)
(0.99983 -0.000589495 0)
(0.999652 0.000544392 0)
(1.00031 -0.000379125 0)
(0.999341 -0.00127838 0)
(0.998146 1.62723e-05 0)
(0.998376 0.000913371 0)
(0.999882 0.00245215 0)
(1.00103 0.000553415 0)
(1.00089 -4.69279e-05 0)
(1.00027 -0.000876619 0)
(0.999748 -0.000964269 0)
(0.998659 -0.00173959 0)
(0.997242 -0.00104096 0)
(0.997144 -0.000271347 0)
(0.996839 0.000144842 0)
(0.995545 0.0019667 0)
(0.995516 0.00315872 0)
(0.995811 0.00403452 0)
(0.995797 0.00569879 0)
(0.996073 0.00678562 0)
(0.99984 -0.000559706 0)
(0.999664 0.000496193 0)
(1.00028 -0.000347519 0)
(0.999362 -0.00123095 0)
(0.998212 2.75088e-05 0)
(0.998452 0.000896489 0)
(0.999872 0.00231089 0)
(1.00095 0.000587877 0)
(1.00085 -6.98484e-05 0)
(1.00024 -0.000793542 0)
(0.999715 -0.000927492 0)
(0.998664 -0.00161562 0)
(0.997325 -0.000962596 0)
(0.997218 -0.000165884 0)
(0.996985 0.00025328 0)
(0.995753 0.00199031 0)
(0.995671 0.00323183 0)
(0.996016 0.00403161 0)
(0.996037 0.00561658 0)
(0.996266 0.00670142 0)
(0.99985 -0.000530408 0)
(0.999677 0.000451896 0)
(1.00025 -0.000319844 0)
(0.999381 -0.00118179 0)
(0.998277 3.643e-05 0)
(0.998526 0.000880097 0)
(0.999863 0.00217459 0)
(1.00088 0.000616639 0)
(1.0008 -8.55733e-05 0)
(1.00021 -0.000717824 0)
(0.999683 -0.000883555 0)
(0.998671 -0.00149496 0)
(0.997409 -0.000881839 0)
(0.997294 -6.19921e-05 0)
(0.997128 0.000361826 0)
(0.995964 0.00200996 0)
(0.995828 0.00329612 0)
(0.996213 0.00403486 0)
(0.996275 0.00552635 0)
(0.996457 0.0066124 0)
(0.999859 -0.000501849 0)
(0.999689 0.000411487 0)
(1.00022 -0.000295565 0)
(0.9994 -0.0011317 0)
(0.998342 4.38443e-05 0)
(0.998597 0.00086302 0)
(0.999856 0.0020438 0)
(1.0008 0.000640755 0)
(1.00075 -9.53701e-05 0)
(1.00019 -0.000648511 0)
(0.999651 -0.000833675 0)
(0.998679 -0.00137731 0)
(0.997494 -0.000798576 0)
(0.997374 4.06644e-05 0)
(0.997269 0.000471457 0)
(0.996177 0.00202577 0)
(0.995988 0.00335014 0)
(0.996402 0.00404391 0)
(0.996512 0.00543053 0)
(0.996646 0.00651728 0)
(0.999868 -0.000473549 0)
(0.999702 0.000374027 0)
(1.00019 -0.000274352 0)
(0.999418 -0.00108145 0)
(0.998407 5.01624e-05 0)
(0.998666 0.000845122 0)
(0.99985 0.00191848 0)
(1.00073 0.000660056 0)
(1.0007 -9.98523e-05 0)
(1.00016 -0.000586748 0)
(0.999621 -0.000777924 0)
(0.998689 -0.00126158 0)
(0.99758 -0.000714692 0)
(0.997456 0.000140821 0)
(0.997407 0.000582465 0)
(0.996391 0.00203929 0)
(0.996151 0.00339236 0)
(0.996583 0.00405628 0)
(0.996744 0.00533032 0)
(0.996835 0.00641418 0)
(0.999877 -0.000445765 0)
(0.999715 0.00033972 0)
(1.00016 -0.000255081 0)
(0.999436 -0.00103226 0)
(0.99847 5.62089e-05 0)
(0.998731 0.000826207 0)
(0.999845 0.00179824 0)
(1.00066 0.000675713 0)
(1.00066 -9.66431e-05 0)
(1.00013 -0.000531132 0)
(0.999592 -0.000717167 0)
(0.998699 -0.00114649 0)
(0.997668 -0.000629013 0)
(0.997542 0.000238302 0)
(0.997542 0.000694829 0)
(0.996605 0.00205214 0)
(0.996318 0.00342201 0)
(0.996755 0.00406999 0)
(0.996971 0.0052284 0)
(0.997023 0.00630297 0)
(0.999885 -0.000418909 0)
(0.999727 0.000308371 0)
(1.00013 -0.000235913 0)
(0.999453 -0.000985447 0)
(0.998532 6.20921e-05 0)
(0.998793 0.000806121 0)
(0.999841 0.00168261 0)
(1.00059 0.000687605 0)
(1.00061 -8.72278e-05 0)
(1.00011 -0.00047943 0)
(0.999565 -0.000652456 0)
(0.99871 -0.00103213 0)
(0.997756 -0.000540637 0)
(0.997632 0.000331626 0)
(0.997674 0.000807029 0)
(0.996818 0.00206534 0)
(0.996489 0.00343932 0)
(0.996919 0.00408352 0)
(0.997191 0.00512707 0)
(0.997211 0.00618361 0)
(0.999893 -0.000392104 0)
(0.99974 0.000278561 0)
(1.00011 -0.00021677 0)
(0.99947 -0.000941472 0)
(0.998593 6.80563e-05 0)
(0.998852 0.000785746 0)
(0.999838 0.00157178 0)
(1.00052 0.000694817 0)
(1.00056 -7.1543e-05 0)
(1.00009 -0.000432532 0)
(0.99954 -0.000586102 0)
(0.998722 -0.000917654 0)
(0.997845 -0.000448871 0)
(0.997726 0.000420217 0)
(0.997803 0.000916655 0)
(0.997029 0.00207835 0)
(0.996664 0.0034441 0)
(0.997076 0.00409478 0)
(0.997403 0.00502714 0)
(0.997397 0.0060563 0)
(0.999901 -0.000366051 0)
(0.999752 0.000250917 0)
(1.00008 -0.00019667 0)
(0.999487 -0.000900127 0)
(0.998654 7.33861e-05 0)
(0.998908 0.000766183 0)
(0.999835 0.00146576 0)
(1.00046 0.000698464 0)
(1.00052 -4.82381e-05 0)
(1.00006 -0.000388919 0)
(0.999518 -0.000518623 0)
(0.998736 -0.000801918 0)
(0.997934 -0.000356278 0)
(0.997823 0.000504312 0)
(0.997929 0.00102342 0)
(0.997237 0.00209231 0)
(0.996844 0.00343758 0)
(0.997226 0.00410312 0)
(0.997605 0.00492948 0)
(0.997583 0.00592117 0)
(0.999908 -0.000340566 0)
(0.999764 0.000224598 0)
(1.00006 -0.000174473 0)
(0.999502 -0.000860541 0)
(0.998713 7.65524e-05 0)
(0.998961 0.000748741 0)
(0.999833 0.00136452 0)
(1.00039 0.000697983 0)
(1.00047 -2.00878e-05 0)
(1.00004 -0.000345643 0)
(0.999499 -0.000449771 0)
(0.998751 -0.000686055 0)
(0.998023 -0.000263597 0)
(0.997923 0.000584006 0)
(0.998053 0.00112656 0)
(0.99744 0.00210771 0)
(0.997028 0.00342009 0)
(0.997371 0.00410817 0)
(0.997796 0.0048363 0)
(0.997766 0.00577952 0)
(0.999915 -0.000315318 0)
(0.999775 0.000198046 0)
(1.00003 -0.00014885 0)
(0.999517 -0.000822456 0)
(0.998772 7.59079e-05 0)
(0.999011 0.000733494 0)
(0.999831 0.00126845 0)
(1.00034 0.000692146 0)
(1.00042 1.13654e-05 0)
(1.00003 -0.000301794 0)
(0.999483 -0.000381969 0)
(0.998767 -0.000570527 0)
(0.998112 -0.000168021 0)
(0.998027 0.000660779 0)
(0.998174 0.00122545 0)
(0.997637 0.00212564 0)
(0.997215 0.00339171 0)
(0.997512 0.00410788 0)
(0.997975 0.00474966 0)
(0.997946 0.00563399 0)
(0.999922 -0.000290672 0)
(0.999787 0.000171747 0)
(1.00001 -0.0001204 0)
(0.999531 -0.000785336 0)
(0.99883 7.05021e-05 0)
(0.999058 0.000718984 0)
(0.999829 0.00117783 0)
(1.00028 0.000680481 0)
(1.00038 4.67838e-05 0)
(1.00001 -0.000256606 0)
(0.99947 -0.000314338 0)
(0.998785 -0.000454984 0)
(0.998201 -7.03411e-05 0)
(0.998133 0.000733408 0)
(0.998294 0.00131894 0)
(0.997828 0.00214778 0)
(0.997406 0.00335422 0)
(0.997651 0.00409868 0)
(0.998143 0.00466886 0)
(0.998123 0.00548635 0)
(0.999928 -0.000266573 0)
(0.999799 0.000145154 0)
(0.999984 -9.11079e-05 0)
(0.999544 -0.000746258 0)
(0.998888 6.02888e-05 0)
(0.999102 0.00070512 0)
(0.999827 0.00109546 0)
(1.00023 0.000664241 0)
(1.00033 8.52198e-05 0)
(0.999989 -0.000208095 0)
(0.999461 -0.000246447 0)
(0.998805 -0.000339969 0)
(0.998288 2.56887e-05 0)
(0.998243 0.000801309 0)
(0.998413 0.00140683 0)
(0.998013 0.00217428 0)
(0.997599 0.00330894 0)
(0.997789 0.00407717 0)
(0.998298 0.00459147 0)
(0.998294 0.00533821 0)
(0.999933 -0.000243291 0)
(0.999811 0.000118686 0)
(0.999962 -6.17388e-05 0)
(0.999555 -0.000703856 0)
(0.998945 4.56763e-05 0)
(0.999145 0.000690454 0)
(0.999824 0.00102275 0)
(1.00019 0.000645505 0)
(1.00029 0.000124241 0)
(0.999973 -0.000154393 0)
(0.999456 -0.000178979 0)
(0.998827 -0.000226623 0)
(0.998374 0.00012093 0)
(0.998355 0.000863943 0)
(0.998532 0.00148813 0)
(0.998189 0.00220611 0)
(0.997792 0.00325807 0)
(0.997928 0.00404137 0)
(0.998443 0.0045147 0)
(0.998461 0.0051898 0)
(0.999939 -0.000220539 0)
(0.999824 9.17533e-05 0)
(0.999941 -3.3508e-05 0)
(0.999564 -0.000655816 0)
(0.999001 2.86867e-05 0)
(0.999186 0.000673014 0)
(0.999821 0.000958618 0)
(1.00014 0.000626091 0)
(1.00025 0.000161975 0)
(0.999958 -9.75401e-05 0)
(0.999454 -0.000110062 0)
(0.998852 -0.00011653 0)
(0.998459 0.000218722 0)
(0.998468 0.000921599 0)
(0.998652 0.00155826 0)
(0.998358 0.00224351 0)
(0.997982 0.00320744 0)
(0.998068 0.00399181 0)
(0.998578 0.00443557 0)
(0.998621 0.00503978 0)
(0.999943 -0.000199045 0)
(0.999837 6.61079e-05 0)
(0.999922 -9.22909e-06 0)
(0.999572 -0.000600346 0)
(0.999056 1.04906e-05 0)
(0.999227 0.000650583 0)
(0.999818 0.000902841 0)
(1.0001 0.00060744 0)
(1.00021 0.000196168 0)
(0.999944 -3.93979e-05 0)
(0.999456 -3.91214e-05 0)
(0.998879 -1.11116e-05 0)
(0.998542 0.000315933 0)
(0.998583 0.000975945 0)
(0.998774 0.00161314 0)
(0.99852 0.00228097 0)
(0.998168 0.00316372 0)
(0.998208 0.00393457 0)
(0.998704 0.00435375 0)
(0.998777 0.00488558 0)
(0.999948 -0.000178805 0)
(0.99985 4.23356e-05 0)
(0.999906 9.78011e-06 0)
(0.999578 -0.000539017 0)
(0.99911 -5.87681e-06 0)
(0.999268 0.000621766 0)
(0.999816 0.000853322 0)
(1.00007 0.000590257 0)
(1.00018 0.000228927 0)
(0.999933 1.91626e-05 0)
(0.999462 3.37726e-05 0)
(0.998909 9.27758e-05 0)
(0.998624 0.000412207 0)
(0.998697 0.00103011 0)
(0.998899 0.00165568 0)
(0.998678 0.00231121 0)
(0.99835 0.00312534 0)
(0.998347 0.00387692 0)
(0.998821 0.00427437 0)
(0.998928 0.00472511 0)
(0.999952 -0.000160056 0)
(0.999863 2.05271e-05 0)
(0.999891 2.40025e-05 0)
(0.999582 -0.000472463 0)
(0.999161 -1.70951e-05 0)
(0.999308 0.000586533 0)
(0.999814 0.000808576 0)
(1.00004 0.000577299 0)
(1.00015 0.000261523 0)
(0.999924 7.7388e-05 0)
(0.999471 0.000108024 0)
(0.998943 0.000196192 0)
(0.998704 0.00050709 0)
(0.99881 0.0010856 0)
(0.999026 0.00169124 0)
(0.998832 0.00233213 0)
(0.998528 0.00308262 0)
(0.998486 0.00381591 0)
(0.998926 0.00420496 0)
(0.999071 0.00456238 0)
(0.999956 -0.000142646 0)
(0.999876 9.20348e-07 0)
(0.99988 3.17304e-05 0)
(0.999586 -0.000402195 0)
(0.999209 -2.23068e-05 0)
(0.999348 0.000545847 0)
(0.999814 0.000766044 0)
(1.00001 0.000569296 0)
(1.00012 0.000294469 0)
(0.999919 0.000134328 0)
(0.999485 0.000181956 0)
(0.998979 0.000297761 0)
(0.998783 0.000599569 0)
(0.998921 0.00114021 0)
(0.999153 0.00172185 0)
(0.998983 0.00234921 0)
(0.998702 0.00303549 0)
(0.998629 0.00374176 0)
(0.99902 0.00414806 0)
(0.999204 0.00440768 0)
(0.99996 -0.000127094 0)
(0.999888 -1.57248e-05 0)
(0.999871 3.30649e-05 0)
(0.99959 -0.000331895 0)
(0.999253 -1.78687e-05 0)
(0.999387 0.000502424 0)
(0.999817 0.000722632 0)
(0.999986 0.000564653 0)
(1.0001 0.000329626 0)
(0.999916 0.000188855 0)
(0.999503 0.000252723 0)
(0.999018 0.000398154 0)
(0.99886 0.000691201 0)
(0.999031 0.00119384 0)
(0.99928 0.00174577 0)
(0.999131 0.00236518 0)
(0.998869 0.0029947 0)
(0.998776 0.00365009 0)
(0.999108 0.00409809 0)
(0.999321 0.00427213 0)
(0.999964 -0.000113344 0)
(0.9999 -2.87409e-05 0)
(0.999866 3.03569e-05 0)
(0.999593 -0.000264517 0)
(0.999293 -1.36922e-06 0)
(0.999426 0.000461052 0)
(0.999822 0.000676436 0)
(0.999966 0.000561898 0)
(1.00008 0.000367928 0)
(0.999916 0.000243799 0)
(0.999525 0.000317243 0)
(0.999061 0.000493824 0)
(0.998936 0.000780118 0)
(0.999136 0.00124752 0)
(0.999409 0.0017617 0)
(0.999277 0.00237199 0)
(0.999028 0.00296636 0)
(0.998928 0.00354355 0)
(0.999194 0.00404146 0)
(0.999423 0.00416273 0)
(0.999967 -0.000101185 0)
(0.999911 -3.77423e-05 0)
(0.999862 2.38105e-05 0)
(0.999598 -0.000203157 0)
(0.999329 2.49753e-05 0)
(0.999461 0.000424626 0)
(0.999831 0.000627304 0)
(0.999952 0.000558517 0)
(1.00006 0.000409385 0)
(0.999918 0.000301979 0)
(0.999552 0.000377355 0)
(0.999108 0.000582404 0)
(0.999012 0.000865666 0)
(0.999238 0.00130068 0)
(0.999536 0.00177452 0)
(0.999424 0.00236342 0)
(0.999177 0.00295052 0)
(0.99908 0.00343377 0)
(0.999287 0.00396378 0)
(0.999509 0.00407744 0)
(0.99997 -9.10676e-05 0)
(0.999921 -4.19442e-05 0)
(0.999861 1.43079e-05 0)
(0.999604 -0.000150744 0)
(0.999362 5.97213e-05 0)
(0.999494 0.000396373 0)
(0.999841 0.000577352 0)
(0.999943 0.000552531 0)
(1.00005 0.000453647 0)
(0.999922 0.000364549 0)
(0.999582 0.000436284 0)
(0.999159 0.000660498 0)
(0.999087 0.000947699 0)
(0.999336 0.00135162 0)
(0.999659 0.00178679 0)
(0.999574 0.00233857 0)
(0.999318 0.00294114 0)
(0.999226 0.0033356 0)
(0.99939 0.00385821 0)
(0.999586 0.00400295 0)
(0.999973 -8.22679e-05 0)
(0.999931 -4.26186e-05 0)
(0.999862 3.35012e-06 0)
(0.999612 -0.000109154 0)
(0.999392 0.000101296 0)
(0.999522 0.000382111 0)
(0.999853 0.000527956 0)
(0.999941 0.000540408 0)
(1.00004 0.000497304 0)
(0.999927 0.000432901 0)
(0.999614 0.000496617 0)
(0.999214 0.000729593 0)
(0.999162 0.00102369 0)
(0.99943 0.0014016 0)
(0.999777 0.00179943 0)
(0.999727 0.00229676 0)
(0.999456 0.00292622 0)
(0.99936 0.00326012 0)
(0.999499 0.00372979 0)
(0.99966 0.00392282 0)
(0.999975 -7.50146e-05 0)
(0.999939 -3.98433e-05 0)
(0.999864 -7.48471e-06 0)
(0.999623 -7.86787e-05 0)
(0.999419 0.000144966 0)
(0.999546 0.000381659 0)
(0.999865 0.000483297 0)
(0.999945 0.000521881 0)
(1.00004 0.000536243 0)
(0.999934 0.000506472 0)
(0.999647 0.000559389 0)
(0.999272 0.000794289 0)
(0.999238 0.00108959 0)
(0.999521 0.0014473 0)
(0.999887 0.00181716 0)
(0.999881 0.00224132 0)
(0.999596 0.00289085 0)
(0.99948 0.00321236 0)
(0.99961 0.00359686 0)
(0.999737 0.00382625 0)
(0.999978 -6.86717e-05 0)
(0.999946 -3.56581e-05 0)
(0.999866 -1.5737e-05 0)
(0.999635 -5.74688e-05 0)
(0.999446 0.000187135 0)
(0.999565 0.00039284 0)
(0.999875 0.000447812 0)
(0.999955 0.000498109 0)
(1.00005 0.000568505 0)
(0.999943 0.000581723 0)
(0.99968 0.000627645 0)
(0.999332 0.000855424 0)
(0.999314 0.00114662 0)
(0.99961 0.00148159 0)
(0.999986 0.00184174 0)
(1.00003 0.00218403 0)
(0.999746 0.0028227 0)
(0.999591 0.00318048 0)
(0.999712 0.0034808 0)
(0.999817 0.0037125 0)
(0.99998 -6.31646e-05 0)
(0.999952 -3.02763e-05 0)
(0.999867 -2.09451e-05 0)
(0.99965 -4.38762e-05 0)
(0.999473 0.000224993 0)
(0.99958 0.000414286 0)
(0.999883 0.000425179 0)
(0.999968 0.000470037 0)
(1.00006 0.000589716 0)
(0.999955 0.00065405 0)
(0.999712 0.000704033 0)
(0.999391 0.000916413 0)
(0.999388 0.00120098 0)
(0.999698 0.00150476 0)
(1.00008 0.00186826 0)
(1.00017 0.00214094 0)
(0.999905 0.00272519 0)
(0.999702 0.0031403 0)
(0.999802 0.00339249 0)
(0.999893 0.00359552 0)
(0.999981 -5.79973e-05 0)
(0.999957 -2.52782e-05 0)
(0.999869 -2.20057e-05 0)
(0.999666 -3.57251e-05 0)
(0.999501 0.000253648 0)
(0.999591 0.000444105 0)
(0.999886 0.000417685 0)
(0.999985 0.000443335 0)
(1.00009 0.000596579 0)
(0.999973 0.000720083 0)
(0.999743 0.000782587 0)
(0.999449 0.000979201 0)
(0.99946 0.00125566 0)
(0.999786 0.00152009 0)
(1.00017 0.00188666 0)
(1.00029 0.00211848 0)
(1.00007 0.002614 0)
(0.999822 0.00307242 0)
(0.999883 0.00332346 0)
(0.99996 0.00349213 0)
(0.999982 -5.30196e-05 0)
(0.999961 -2.1083e-05 0)
(0.99987 -1.83518e-05 0)
(0.999683 -3.10583e-05 0)
(0.999531 0.000271173 0)
(0.9996 0.000478919 0)
(0.999885 0.000426161 0)
(1 0.000421915 0)
(1.00012 0.000591501 0)
(0.999998 0.00077618 0)
(0.999775 0.000860818 0)
(0.999505 0.00104312 0)
(0.999527 0.00131185 0)
(0.999871 0.00153348 0)
(1.00025 0.00189157 0)
(1.0004 0.0021115 0)
(1.00022 0.00250748 0)
(0.999956 0.00297314 0)
(0.999964 0.00325059 0)
(1.00001 0.00340551 0)
(0.999983 -4.77821e-05 0)
(0.999964 -1.89061e-05 0)
(0.99987 -9.90949e-06 0)
(0.999701 -2.73529e-05 0)
(0.999563 0.000278766 0)
(0.999609 0.000514254 0)
(0.999879 0.000449043 0)
(1.00002 0.000408731 0)
(1.00015 0.000579727 0)
(1.00003 0.000817031 0)
(0.999808 0.000937597 0)
(0.99956 0.00110698 0)
(0.999589 0.00137047 0)
(0.99995 0.00154867 0)
(1.00034 0.00188398 0)
(1.00049 0.00211302 0)
(1.00037 0.00241959 0)
(1.0001 0.00285384 0)
(1.00005 0.00315634 0)
(1.00006 0.00332439 0)
(0.999984 -4.22621e-05 0)
(0.999967 -1.87569e-05 0)
(0.99987 2.10378e-06 0)
(0.999718 -2.27228e-05 0)
(0.999597 0.000276741 0)
(0.999619 0.000546414 0)
(0.999868 0.000483985 0)
(1.00003 0.000407768 0)
(1.00019 0.000562909 0)
(1.00007 0.000839426 0)