/*--------------------------------*- C++ -*----------------------------------*\
| =========                 |                                                 |
| \\      /  F ield         | OpenFOAM: The Open Source CFD Toolbox           |
|  \\    /   O peration     | Version:  v2012                                 |
|   \\  /    A nd           | Website:  www.openfoam.com                      |
|    \\/     M anipulation  |                                                 |
\*---------------------------------------------------------------------------*/
FoamFile
{
    version     2.0;
    format      ascii;
    class       volScalarField;
    location    "0.4";
    object      p;
}
// * * * * * * * * * * * * * * * * * * * * * * * * * * * * * * * * * * * * * //

dimensions      [0 2 -2 0 0 0 0];


internalField   nonuniform List<scalar> 
8000
(
-4.91297e-11
0.00115914
0.000399714
-0.000934947
-0.000591097
0.00085371
0.00062016
0.000733882
0.000999342
0.000981587
0.000884786
0.00128101
0.00126763
0.0021764
0.00240208
0.00313316
0.00365923
0.00513994
0.00656717
0.00910141
2.8655e-06
0.00114123
0.000397819
-0.000918685
-0.000579782
0.000851096
0.000617997
0.000720354
0.000998994
0.000982086
0.000886734
0.00127756
0.00128273
0.00216882
0.00240641
0.00311806
0.003664
0.00511708
0.00656098
0.0087926
4.70085e-06
0.00112815
0.0003983
-0.000907429
-0.000571336
0.000846543
0.000614078
0.000707634
0.00100063
0.000982643
0.000889117
0.00127287
0.0012955
0.00215842
0.00241256
0.00309866
0.00367146
0.00508409
0.00653117
0.00847133
6.91866e-06
0.00111403
0.000398161
-0.00089571
-0.000562183
0.000841636
0.000610325
0.000695875
0.00100169
0.000983319
0.000891859
0.00126681
0.00130906
0.00214628
0.00242014
0.00307599
0.00367939
0.00504214
0.00647862
0.00818311
9.57304e-06
0.00109901
0.000397551
-0.000883599
-0.000551578
0.000836218
0.000606631
0.000683812
0.00100248
0.000984027
0.000895027
0.00125969
0.00132365
0.00213249
0.00242856
0.00305056
0.00368579
0.00499158
0.00641197
0.00791898
1.2633e-05
0.00108334
0.000396714
-0.000871027
-0.000539856
0.00083029
0.00060317
0.000671433
0.00100364
0.000984501
0.000898787
0.0012517
0.00133883
0.00211706
0.00243743
0.00302282
0.00368917
0.00493542
0.00633211
0.00766778
1.60479e-05
0.00106705
0.000395784
-0.000858023
-0.000527316
0.000824159
0.000600254
0.000658659
0.00100535
0.000984625
0.0009031
0.00124285
0.0013543
0.00210043
0.0024462
0.00299367
0.00368821
0.00487472
0.0062382
0.00742607
1.97382e-05
0.00105021
0.000394927
-0.000844643
-0.000514168
0.000817961
0.000597862
0.000645346
0.00100771
0.000984312
0.000907883
0.00123327
0.00136985
0.00208299
0.0024541
0.00296376
0.00368131
0.0048102
0.00613124
0.00719223
2.36459e-05
0.00103288
0.000394264
-0.000830995
-0.000500588
0.000811653
0.000595897
0.000631467
0.00101069
0.000983516
0.000913004
0.00122312
0.00138516
0.00206515
0.00246021
0.00293356
0.00366766
0.0047427
0.00601258
0.00696456
2.77486e-05
0.00101513
0.000393819
-0.000817205
-0.000486687
0.000805188
0.000594296
0.000617022
0.00101421
0.00098227
0.000918287
0.00121267
0.00139983
0.00204744
0.00246376
0.00290354
0.00364687
0.00467239
0.00588355
0.00674167
3.20413e-05
0.000996997
0.00039356
-0.000803376
-0.000472539
0.00079855
0.000593012
0.000602036
0.00101814
0.000980643
0.000923502
0.00120226
0.00141335
0.00203046
0.00246418
0.00287397
0.00361855
0.00459896
0.0057459
0.00652257
3.65202e-05
0.000978494
0.000393449
-0.000789568
-0.000458198
0.000791732
0.00059201
0.000586571
0.00102235
0.000978761
0.000928373
0.00119225
0.0014252
0.00201468
0.00246107
0.00284475
0.00358273
0.0045221
0.00560136
0.00630638
4.11795e-05
0.000959633
0.000393453
-0.000775815
-0.000443713
0.00078474
0.000591275
0.000570708
0.00102667
0.000976835
0.000932574
0.00118296
0.00143501
0.00200028
0.00245404
0.00281562
0.00353993
0.00444142
0.00545132
0.0060924
4.60125e-05
0.000940424
0.000393541
-0.000762135
-0.000429131
0.000777603
0.000590781
0.000554539
0.00103091
0.000975116
0.000935752
0.00117473
0.00144251
0.00198733
0.00244292
0.00278611
0.00349089
0.00435648
0.00529696
0.00588032
5.10107e-05
0.000920878
0.000393694
-0.000748541
-0.0004145
0.000770364
0.000590486
0.000538186
0.00103487
0.000973873
0.00093757
0.00116779
0.00144746
0.00197573
0.00242785
0.00275545
0.00343633
0.00426697
0.00513936
0.00567007
5.61638e-05
0.000901013
0.000393891
-0.000735028
-0.000399877
0.000763066
0.00059034
0.000521802
0.0010383
0.000973401
0.000937756
0.0011623
0.00144969
0.00196526
0.0024092
0.00272272
0.00337696
0.00417278
0.00497938
0.00546158
6.14591e-05
0.000880849
0.000394118
-0.00072158
-0.000385329
0.000755758
0.000590272
0.000505549
0.00104095
0.000973952
0.000936135
0.00115826
0.0014492
0.0019555
0.00238749
0.00268697
0.00331332
0.00407408
0.00481758
0.00525493
6.68795e-05
0.000860418
0.000394354
-0.00070817
-0.000370931
0.000748499
0.000590189
0.000489604
0.0010426
0.000975693
0.000932569
0.0011556
0.00144621
0.0019457
0.0023634
0.00264749
0.0032457
0.00397128
0.00465446
0.00505024
7.24034e-05
0.000839762
0.000394578
-0.000694772
-0.000356766
0.000741359
0.000589994
0.000474131
0.00104307
0.000978835
0.000926907
0.00115424
0.00144123
0.00193493
0.00233763
0.00260391
0.00317412
0.00386497
0.0044905
0.00484759
7.8004e-05
0.000818929
0.000394763
-0.000681355
-0.000342929
0.00073442
0.000589592
0.000459273
0.0010422
0.000983345
0.000919077
0.00115373
0.00143498
0.00192224
0.00231062
0.00255606
0.00309838
0.0037558
0.00432625
0.00464712
8.36475e-05
0.00079798
0.000394878
-0.000667873
-0.00032952
0.000727751
0.0005889
0.000445164
0.00103986
0.000989218
0.000909277
0.0011535
0.0014282
0.0019069
0.00228242
0.00250402
0.00301828
0.00364442
0.00416227
0.00444891
8.92929e-05
0.000776989
0.000394887
-0.000654276
-0.000316642
0.000721404
0.000587841
0.000431904
0.00103598
0.000996328
0.000897895
0.0011528
0.00142151
0.00188847
0.00225281
0.00244814
0.00293365
0.00353133
0.00399921
0.00425305
9.48915e-05
0.00075604
0.000394755
-0.000640522
-0.000304388
0.000715428
0.000586359
0.000419544
0.00103059
0.00100445
0.000885437
0.00115086
0.00141523
0.00186676
0.00222147
0.00238892
0.00284431
0.0034168
0.00383779
0.00405969
0.000100388
0.00073523
0.000394444
-0.000626575
-0.000292857
0.000709864
0.000584432
0.000408046
0.0010238
0.00101331
0.000872494
0.00114711
0.00140939
0.0018418
0.002188
0.00232691
0.00275004
0.00330083
0.00367877
0.00386914
0.000105718
0.000714664
0.00039392
-0.000612394
-0.000282149
0.000704733
0.000582078
0.0003973
0.00101579
0.00102254
0.000859583
0.00114125
0.00140395
0.00181377
0.00215195
0.00226267
0.00265082
0.00318321
0.0035229
0.00368186
0.000110812
0.000694454
0.000393154
-0.000597951
-0.000272333
0.000700002
0.000579347
0.000387186
0.00100682
0.00103176
0.000846965
0.00113308
0.00139869
0.00178286
0.00211272
0.00219679
0.00254694
0.00306351
0.00337073
0.00349846
0.00011559
0.000674722
0.000392122
-0.000583243
-0.000263451
0.000695603
0.000576369
0.000377516
0.000997101
0.00104072
0.000834824
0.00112253
0.00139327
0.00174926
0.00206973
0.00212981
0.00243899
0.00294119
0.00322255
0.00331963
0.00011997
0.000655588
0.000390809
-0.000568271
-0.000255519
0.00069144
0.000573334
0.000368029
0.000986813
0.00104935
0.000823129
0.00110961
0.00138748
0.00171323
0.00202246
0.00206204
0.00232774
0.00281577
0.00307837
0.00314605
0.000123864
0.000637161
0.000389224
-0.000553067
-0.000248532
0.000687376
0.000570455
0.00035851
0.000976051
0.00105761
0.000811618
0.00109427
0.00138117
0.00167513
0.00197049
0.00199359
0.00221413
0.00268696
0.002938
0.00297829
0.000127178
0.000619552
0.000387405
-0.000537689
-0.000242448
0.000683216
0.000567946
0.000348856
0.000964811
0.00106557
0.000800087
0.00107638
0.00137406
0.00163533
0.00191353
0.00192438
0.00209921
0.00255463
0.00280095
0.00281681
0.000129817
0.000602867
0.000385406
-0.000522194
-0.000237183
0.000678721
0.000565984
0.000339035
0.000952942
0.00107337
0.000788589
0.00105574
0.00136579
0.00159422
0.00185144
0.00185421
0.00198411
0.00241883
0.00266655
0.00266192
0.000131699
0.000587194
0.000383308
-0.000506689
-0.000232643
0.00067369
0.000564666
0.000329088
0.000940204
0.00108109
0.000777312
0.0010321
0.00135592
0.00155223
0.0017842
0.00178276
0.00186994
0.00227986
0.00253397
0.00251375
0.000132745
0.000572595
0.000381227
-0.000491329
-0.000228695
0.000667951
0.000563988
0.00031919
0.000926335
0.00108862
0.000766465
0.00100529
0.00134399
0.00150987
0.00171195
0.00170946
0.00175768
0.00213838
0.00240245
0.00237222
0.000132879
0.000559102
0.000379319
-0.000476278
-0.000225187
0.000661358
0.000563853
0.000309617
0.000911118
0.00109574
0.000756361
0.000975272
0.00132946
0.0014676
0.00163509
0.00163363
0.00164798
0.00199519
0.00227131
0.00223716
0.000132041
0.000546702
0.00037778
-0.000461697
-0.000222011
0.000653816
0.000564066
0.000300671
0.000894522
0.00110213
0.000747232
0.000942091
0.00131172
0.00142572
0.00155419
0.00155463
0.00154122
0.00185106
0.0021399
0.00210842
0.000130186
0.000535342
0.000376844
-0.000447757
-0.000219148
0.000645348
0.000564341
0.000292542
0.000876644
0.00110739
0.00073915
0.000905969
0.00129024
0.00138443
0.00146994
0.00147195
0.00143777
0.00170673
0.00200732
0.00198579
0.000127286
0.00052492
0.000376783
-0.000434568
-0.000216647
0.000636074
0.000564353
0.000285234
0.000857684
0.00111114
0.000731975
0.000867311
0.00126463
0.00134378
0.00138316
0.00138518
0.00133808
0.00156319
0.00187235
0.00186875
0.00012334
0.000515274
0.000377884
-0.000422157
-0.000214634
0.000626171
0.000563797
0.000278643
0.000837965
0.00111313
0.000725483
0.000826436
0.00123459
0.00130374
0.00129473
0.0012939
0.00124243
0.00142201
0.00173364
0.00175602
0.000118374
0.000506191
0.000380428
-0.000410558
-0.000213362
0.000615933
0.000562526
0.000272497
0.000817793
0.00111334
0.000719293
0.000783512
0.00119991
0.00126426
0.00120567
0.00119758
0.00115057
0.00128548
0.00159047
0.00164551
0.000112449
0.000497393
0.000384661
-0.000399603
-0.000213242
0.000605639
0.000560613
0.00026634
0.000797299
0.00111184
0.00071307
0.000738633
0.0011604
0.00122528
0.00111719
0.00109583
0.00106135
0.00115622
0.0014435
0.00153464
0.000105669
0.000488511
0.000390766
-0.000388908
-0.000214774
0.000595413
0.000558242
0.000259678
0.000776391
0.00110886
0.000706748
0.000691885
0.00111584
0.00118652
0.00103067
0.000988851
0.000972836
0.00103636
0.00129502
0.00142101
9.81881e-05
0.000479147
0.000398833
-0.00037802
-0.000218409
0.000585216
0.000555693
0.00025212
0.000754849
0.00110471
0.000700464
0.000643352
0.00106601
0.00114753
0.000947325
0.000877592
0.000882727
0.000926839
0.00114868
0.00130317
9.01733e-05
0.000468954
0.000408828
-0.000366369
-0.000224497
0.000574829
0.000553365
0.000243433
0.000732292
0.00109953
0.000694384
0.000593118
0.00101082
0.00110785
0.000867904
0.000763559
0.000789121
0.000827335
0.00100881
0.00118096
8.18049e-05
0.000457645
0.000420524
-0.000353265
-0.000233202
0.000563766
0.000551738
0.000233619
0.00070806
0.00109324
0.000688882
0.000541389
0.000950097
0.00106716
0.000792734
0.000648284
0.000690833
0.00073642
0.000879846
0.00105575
7.32971e-05
0.00044496
0.000433492
-0.000337952
-0.000244482
0.000551301
0.000551191
0.000222939
0.000681418
0.00108553
0.000684461
0.000488625
0.000883599
0.00102518
0.000722102
0.000532978
0.000587258
0.000651548
0.000765448
0.000930813
6.48742e-05
0.00043067
0.000447171
-0.000319754
-0.000258077
0.000536635
0.000551834
0.000211802
0.00065196
0.00107591
0.000681386
0.00043558
0.000811065
0.000981539
0.00065668
0.000418637
0.000478333
0.000569318
0.000667344
0.000810935
5.67811e-05
0.000414606
0.000460829
-0.000298074
-0.000273387
0.000518957
0.000553476
0.000200683
0.000619594
0.00106389
0.000679589
0.00038318
0.000732388
0.00093549
0.000597517
0.000306295
0.000364452
0.000486179
0.000584455
0.000701308
4.92792e-05
0.000396732
0.000473607
-0.000272523
-0.000289533
0.000497507
0.000555725
0.000190086
0.000584277
0.00104894
0.000678925
0.000332354
0.000647799
0.000885842
0.000545635
0.000197273
0.000246371
0.000399079
0.000512715
0.000606309
4.25516e-05
0.000376971
0.000484764
-0.000242945
-0.000305523
0.000471807
0.000557885
0.00018054
0.000546092
0.0010305
0.00067922
0.000284012
0.000557868
0.000831024
0.000501727
9.32362e-05
0.000125223
0.000306436
0.000445962
0.000527619
3.6705e-05
0.000355371
0.000493679
-0.000209341
-0.000320295
0.00044173
0.000558999
0.000172267
0.000505323
0.00100819
0.00068019
0.000239043
0.000463537
0.000769148
0.000465986
-3.76815e-06
1.79007e-06
0.000208852
0.000378505
0.00046308
3.17885e-05
0.000332069
0.000499752
-0.000172654
-0.000332719
0.000407331
0.000558098
0.000165262
0.000462191
0.000981847
0.000681598
0.000198121
0.000366231
0.000698257
0.000437817
-9.06185e-05
-0.000124244
0.000107544
0.000307289
0.000408232
2.78313e-05
0.000308209
0.000502449
-0.000133349
-0.00034179
0.000369077
0.000554318
0.000159416
0.000416896
0.000951181
0.000683357
0.00016168
0.000267764
0.000616744
0.000415064
-0.000162931
-0.000253135
2.1841e-06
0.000231984
0.00035836
2.48608e-05
0.000283682
0.000501302
-9.24103e-05
-0.000346754
0.000328023
0.000547013
0.000154404
0.000369799
0.000915679
0.000685498
0.000130191
0.000170146
0.000523774
0.000393242
-0.000216216
-0.000382712
-0.000109557
0.000153342
0.000310034
2.28087e-05
0.000258927
0.000496044
-5.10467e-05
-0.000347104
0.000285389
0.000535764
0.00014967
0.000321099
0.000874893
0.000688016
0.000104273
7.55064e-05
0.000419832
0.000366328
-0.000247492
-0.000506844
-0.000231107
7.08268e-05
0.000261435
2.15149e-05
0.000234391
0.000486599
-1.04719e-05
-0.000342539
0.000242172
0.000520408
0.000144773
0.000270686
0.000828391
0.000690643
8.45849e-05
-1.41367e-05
0.000307169
0.000328269
-0.000257545
-0.000616856
-0.000364083
-1.86373e-05
0.00021072
2.08932e-05
0.000210439
0.000473034
2.82771e-05
-0.000333141
0.000199296
0.000501165
0.000139505
0.000218466
0.000775538
0.00069279
7.17986e-05
-9.73161e-05
0.000189421
0.000274393
-0.000252276
-0.000703862
-0.000505147
-0.00011945
0.00015524
2.07895e-05
0.000187371
0.000455606
6.42865e-05
-0.000319454
0.000157647
0.000478545
0.000133674
0.000164644
0.00071542
0.000693404
6.6762e-05
-0.000172948
7.06924e-05
0.000202429
-0.00024108
-0.000760749
-0.000646142
-0.000234737
9.19068e-05
2.10433e-05
0.000165425
0.000434713
9.67638e-05
-0.000302187
0.000117742
0.000453084
0.000127456
0.00010972
0.000647048
0.000690828
7.03318e-05
-0.000240004
-4.49829e-05
0.000113184
-0.000234271
-0.000785114
-0.000776995
-0.000364455
1.75243e-05
2.14936e-05
0.000144754
0.000410893
0.000125115
-0.000282129
8.00188e-05
0.000425163
0.000121336
5.45109e-05
0.000569643
0.000682723
8.27955e-05
-0.000297571
-0.000154346
1.08686e-05
-0.000242215
-0.000781601
-0.000886067
-0.000504221
-7.10341e-05
2.2003e-05
0.000125426
0.000384757
0.000148929
-0.000260084
4.47318e-05
0.000395006
0.0001158
7.92479e-08
0.000482903
0.000666224
0.000103672
-0.000344726
-0.000255486
-9.75053e-05
-0.000272745
-0.00076166
-0.000962224
-0.000645021
-0.00017569
2.24483e-05
0.000107454
0.000356872
0.000167889
-0.000236852
1.19466e-05
0.000362762
0.000111105
-5.17866e-05
0.000387378
0.000637885
0.000131541
-0.000379879
-0.000348162
-0.000204606
-0.00032723
-0.000739622
-0.00100139
-0.00077388
-0.000294711
2.27151e-05
9.07977e-05
0.000327746
0.000181916
-0.000213485
-1.84986e-05
0.000328539
0.00010715
-9.88152e-05
0.000285084
0.000593759
0.000163531
-0.000400387
-0.000433046
-0.000305339
-0.000399498
-0.000730034
-0.00101026
-0.000877429
-0.000421589
2.26979e-05
7.53867e-05
0.000297791
0.00019121
-0.000190785
-4.68117e-05
0.000292287
0.000103397
-0.000139053
0.000178905
0.000530848
0.000194649
-0.0004036
-0.000509567
-0.000397835
-0.000480049
-0.000741959
-0.00100168
-0.000947321
-0.000545787
2.22986e-05
6.11318e-05
0.000267337
0.000196092
-0.000169228
-7.32136e-05
0.000253883
9.90813e-05
-0.000171422
7.25844e-05
0.000448773
0.000217759
-0.000389261
-0.000574534
-0.000482336
-0.000560832
-0.000776308
-0.000991396
-0.000984953
-0.000655608
2.1435e-05
4.79255e-05
0.000236673
0.000196819
-0.000149168
-9.79834e-05
0.000213292
9.33089e-05
-0.000195662
-2.94609e-05
0.000349743
0.000225294
-0.000360536
-0.000623422
-0.000558768
-0.000636291
-0.000827201
-0.000994344
-0.00100126
-0.000742602
2.00283e-05
3.56646e-05
0.000206033
0.000193559
-0.00013078
-0.000121307
0.000170516
8.50538e-05
-0.000212433
-0.000122755
0.000237589
0.000211833
-0.000323224
-0.000653276
-0.000625536
-0.000703533
-0.000885631
-0.00101836
-0.00101242
-0.000805774
1.79859e-05
2.42691e-05
0.000175593
0.000186457
-0.000114057
-0.000143136
0.000125494
7.33896e-05
-0.000223207
-0.000203952
0.000117237
0.000174941
-0.000285907
-0.000664695
-0.000679596
-0.0007612
-0.000944073
-0.00106225
-0.00103559
-0.000852616
1.5204e-05
1.36836e-05
0.000145534
0.000175582
-9.90924e-05
-0.000163346
7.82124e-05
5.75638e-05
-0.000229622
-0.000271608
-4.74619e-06
0.000115076
-0.000257176
-0.000660744
-0.000718437
-0.000807719
-0.000997156
-0.00111782
-0.00108192
-0.000895934
1.15904e-05
3.84139e-06
0.000116075
0.000160985
-8.62119e-05
-0.000181483
2.89479e-05
3.68248e-05
-0.000233369
-0.00032596
-0.000121317
3.56952e-05
-0.000243589
-0.000647792
-0.000742985
-0.000840945
-0.00104133
-0.00117535
-0.00115106
-0.000949396
7.07202e-06
-5.3686e-06
8.74598e-05
0.000142783
-7.59134e-05
-0.000196912
-2.15949e-05
1.03176e-05
-0.000236059
-0.000368156
-0.000227424
-5.82418e-05
-0.000249133
-0.000633017
-0.000756349
-0.000859929
-0.00107461
-0.00122633
-0.00123127
-0.00102089
1.58206e-06
-1.41523e-05
5.9956e-05
0.000121212
-6.87982e-05
-0.000209164
-7.2348e-05
-2.27287e-05
-0.000239499
-0.000399636
-0.00032059
-0.000160001
-0.000274673
-0.000622452
-0.000763937
-0.00086697
-0.00109543
-0.00126496
-0.00130844
-0.00110852
-4.91363e-06
-2.27055e-05
3.38154e-05
9.67155e-05
-6.55238e-05
-0.000218256
-0.000121915
-6.24103e-05
-0.000245903
-0.000422101
-0.000399701
-0.000262679
-0.000318019
-0.000620934
-0.000771198
-0.000865872
-0.00110384
-0.00128906
-0.0013685
-0.00120249
-1.24206e-05
-3.12491e-05
9.19011e-06
6.98957e-05
-6.67248e-05
-0.000224822
-0.000168611
-0.00010792
-0.00025753
-0.000437723
-0.000464214
-0.000361203
-0.000375775
-0.00063137
-0.000782404
-0.000861565
-0.00110182
-0.00130018
-0.00140184
-0.00128825
-2.09272e-05
-3.99952e-05
-1.39054e-05
4.14599e-05
-7.28532e-05
-0.000229979
-0.00021074
-0.000157702
-0.000276104
-0.000449413
-0.000514403
-0.000451865
-0.000443299
-0.000653988
-0.000801272
-0.000858308
-0.00108987
-0.00130343
-0.00140965
-0.00135095
-3.04001e-05
-4.91388e-05
-3.55956e-05
1.21767e-05
-8.39732e-05
-0.000235063
-0.000247107
-0.000209748
-0.000302479
-0.000460702
-0.000552039
-0.000531432
-0.000515625
-0.000687434
-0.000830307
-0.000861225
-0.00106781
-0.00130039
-0.0014041
-0.00138437
-4.07966e-05
-5.88251e-05
-5.6128e-05
-1.72372e-05
-9.96056e-05
-0.000241615
-0.000277496
-0.000261629
-0.000336431
-0.00047486
-0.000579869
-0.000597837
-0.000588026
-0.000729067
-0.000869014
-0.00087625
-0.00103834
-0.00128677
-0.00139576
-0.0013954
-5.20675e-05
-6.91534e-05
-7.57915e-05
-4.623e-05
-0.000118864
-0.000251107
-0.000302755
-0.000310683
-0.000376629
-0.000494333
-0.00060119
-0.000650857
-0.000656431
-0.000774915
-0.000914525
-0.000907318
-0.00100943
-0.00125738
-0.00138582
-0.00139509
-6.41566e-05
-8.0187e-05
-9.48538e-05
-7.45134e-05
-0.000140712
-0.000264546
-0.000324531
-0.000354567
-0.00042067
-0.000520787
-0.000619838
-0.000691389
-0.000718296
-0.000820941
-0.000962435
-0.000954858
-0.000991923
-0.00121266
-0.00136754
-0.00139085
-7.70032e-05
-9.19528e-05
-0.000113536
-0.000102052
-0.000164061
-0.000282139
-0.000344713
-0.000392175
-0.00046564
-0.000554365
-0.000640235
-0.000720888
-0.000771892
-0.000865512
-0.00100624
-0.00101316
-0.000996005
-0.00116208
-0.0013336
-0.00138171
-9.05433e-05
-0.000104453
-0.000131985
-0.000129007
-0.000187936
-0.000303288
-0.00036529
-0.0004239
-0.000508532
-0.000592962
-0.000666573
-0.000742299
-0.000814376
-0.000909218
-0.00104224
-0.00107252
-0.00102461
-0.00112162
-0.00128597
-0.001362
-0.000104709
-0.00011768
-0.000150263
-0.000155627
-0.000211642
-0.000326864
-0.000387939
-0.000451123
-0.000547189
-0.000633106
-0.000700841
-0.000761375
-0.000842928
-0.000950723
-0.00107297
-0.0011234
-0.0010696
-0.00110417
-0.00123791
-0.00133111
-0.000119425
-0.00013163
-0.000168357
-0.000182126
-0.00023489
-0.000351584
-0.000413611
-0.00047545
-0.000581046
-0.000671436
-0.000741079
-0.000785761
-0.000858352
-0.000984769
-0.00110307
-0.00116204
-0.001119
-0.00111128
-0.00120602
-0.001298
-0.000134606
-0.000146307
-0.000186214
-0.000208606
-0.000257805
-0.000376128
-0.000442414
-0.000498467
-0.00061065
-0.000705903
-0.000781971
-0.000821118
-0.0008666
-0.00100438
-0.00113346
-0.00119274
-0.00116418
-0.00113352
-0.00119727
-0.00127653
-0.000150157
-0.000161709
-0.000203781
-0.000234996
-0.000280815
-0.000399316
-0.00047371
-0.000521772
-0.00063657
-0.000736905
-0.000818235
-0.000866754
-0.000878171
-0.00100635
-0.00115908
-0.00122156
-0.00120351
-0.00116151
-0.00120457
-0.00127447
-0.000165966
-0.000177818
-0.000221056
-0.00026104
-0.000304445
-0.000420401
-0.000506172
-0.000546934
-0.000659019
-0.000766153
-0.000846687
-0.000915138
-0.000903863
-0.000995753
-0.00117172
-0.00125005
-0.00124058
-0.00119202
-0.00121733
-0.00128726
-0.000181921
-0.000194567
-0.000238115
-0.000286343
-0.000329072
-0.000439347
-0.000538082
-0.000575186
-0.000678253
-0.000794618
-0.00086873
-0.000957284
-0.000947243
-0.000984486
-0.00116598
-0.00127405
-0.00127785
-0.00122732
-0.0012322
-0.0013052
-0.000197915
-0.000211832
-0.000255087
-0.000310485
-0.000354775
-0.000456836
-0.000567598
-0.000606939
-0.000695226
-0.000821441
-0.000889203
-0.000986238
-0.00100124
-0.00098721
-0.00114483
-0.00128647
-0.00131391
-0.00126942
-0.00125258
-0.00132157
-0.000213852
-0.000229431
-0.000272106
-0.00033314
-0.00038125
-0.000473936
-0.0005932
-0.000641405
-0.000711908
-0.000844417
-0.00091224
-0.00100158
-0.00105366
-0.00101248
-0.00111919
-0.00128234
-0.0013436
-0.00131669
-0.00128373
-0.0013367
-0.00022964
-0.000247138
-0.000289265
-0.00035416
-0.000407861
-0.000491678
-0.000614237
-0.000676608
-0.000730866
-0.000861698
-0.000938937
-0.00101
-0.00109347
-0.00105688
-0.00110386
-0.00126395
-0.00136064
-0.00136307
-0.00132685
-0.00135582
-0.000245197
-0.000264705
-0.00030657
-0.000373595
-0.000433797
-0.000510778
-0.000631213
-0.00071
-0.00075409
-0.000873441
-0.000966495
-0.00101937
-0.00111548
-0.00110818
-0.00110908
-0.00124033
-0.00136203
-0.00140046
-0.00137658
-0.00138337
-0.000260435
-0.000281878
-0.000323922
-0.00039166
-0.000458259
-0.000531371
-0.000645529
-0.000739148
-0.000781797
-0.000882161
-0.000990271
-0.00103475
-0.00112392
-0.00115393
-0.0011348
-0.00122323
-0.00135111
-0.00142287
-0.00142361
-0.001419
-0.000275257
-0.000298422
-0.00034111
-0.000408625
-0.000480668
-0.000552929
-0.000658792
-0.000762631
-0.000812132
-0.000891693
-0.00100718
-0.00105604
-0.00112732
-0.00118578
-0.00117206
-0.00122092
-0.00133552
-0.00142953
-0.00145955
-0.00145771
-0.000289543
-0.00031414
-0.000357842
-0.000424685
-0.000500783
-0.000574519
-0.000672299
-0.000780551
-0.000842069
-0.000905162
-0.00101737
-0.00107904
-0.00113275
-0.00120318
-0.00120999
-0.00123413
-0.00132396
-0.00142506
-0.00148075
-0.00149295
-0.00030314
-0.000328863
-0.0003738
-0.000439911
-0.000518625
-0.000595195
-0.000686684
-0.000794166
-0.000868703
-0.000923315
-0.00102358
-0.00109914
-0.00114361
-0.00121174
-0.00124043
-0.00125705
-0.00132176
-0.00141644
-0.00148896
-0.00151993
-0.000315872
-0.000342425
-0.000388668
-0.000454254
-0.000534335
-0.000614156
-0.000701905
-0.000805204
-0.000890117
-0.000944485
-0.0010294
-0.00111374
-0.00115873
-0.00121801
-0.00126124
-0.001282
-0.00132887
-0.00140975
-0.00148919
-0.00153748
-0.000327538
-0.000354666
-0.00040215
-0.000467536
-0.000548127
-0.000630812
-0.000717204
-0.000815393
-0.000906153
-0.000965798
-0.00103747
-0.0011229
-0.00117427
-0.00122587
-0.00127539
-0.0013042
-0.00134191
-0.00140775
-0.00148586
-0.00154696
-0.000337893
-0.000365427
-0.000413978
-0.000479478
-0.000560158
-0.000644983
-0.000731449
-0.000825439
-0.000918111
-0.00098486
-0.00104824
-0.00112865
-0.00118709
-0.00123516
-0.00128584
-0.00132298
-0.0013585
-0.00141153
-0.00148258
-0.00155119
-0.000346699
-0.000374534
-0.000423929
-0.000489719
-0.00057035
-0.000656731
-0.000743888
-0.000834824
-0.000927102
-0.00100067
-0.0010604
-0.00113323
-0.00119649
-0.00124467
-0.0012932
-0.00133526
-0.00137438
-0.00142313
-0.00148793
-0.00155664
-0.000353789
-0.000381768
-0.000431809
-0.000497936
-0.000578384
-0.000665707
-0.000753672
-0.000842644
-0.000932735
-0.00101138
-0.00107176
-0.00113723
-0.00120296
-0.00125431
-0.00130125
-0.00134368
-0.00138311
-0.00142748
-0.00148591
-0.00155524
-0.000359194
-0.000387899
-0.000438932
-0.000506109
-0.000586944
-0.00067512
-0.000764126
-0.000852796
-0.0009409
-0.00102121
-0.0010843
-0.00114504
-0.00120915
-0.00126319
-0.00131027
-0.00135414
-0.00139659
-0.00144242
-0.00149846
-0.00156515
0.0120615
0.00656809
-0.000268587
-0.00543272
-0.00721007
-0.006736
-0.00585569
-0.00526905
-0.00503795
-0.00495072
-0.00484676
-0.00478468
-0.00479815
-0.00476078
-0.00470194
-0.00472807
-0.00475551
-0.00475148
-0.00476483
-0.00475946
-0.00474391
-0.00476467
-0.00477923
-0.00478389
-0.00482777
-0.00487485
-0.00488152
-0.00486756
-0.0048352
-0.00478453
-0.00473476
-0.00468168
-0.00462526
-0.00456661
-0.00449941
-0.00442657
-0.004362
-0.00429206
-0.00421263
-0.0041341
-0.00405935
-0.00398368
-0.00390199
-0.00382343
-0.00374071
-0.00365995
-0.00357432
-0.0034888
-0.00340206
-0.00331103
-0.00322282
-0.00312646
-0.00303413
-0.00293322
-0.00283167
-0.00272574
-0.00261146
-0.00249519
-0.00236528
-0.00223367
0.0114978
0.00647364
-0.00022704
-0.0053499
-0.00715501
-0.00670992
-0.00584047
-0.00525875
-0.00503054
-0.00494502
-0.004842
-0.00478058
-0.00479477
-0.00475793
-0.00469939
-0.00472587
-0.00475362
-0.00474976
-0.00476331
-0.00475812
-0.00474269
-0.00476359
-0.00477828
-0.00478304
-0.00482702
-0.00487422
-0.00488099
-0.00486712
-0.00483485
-0.00478424
-0.00473452
-0.00468149
-0.00462511
-0.00456649
-0.00449932
-0.0044265
-0.00436195
-0.00429203
-0.00421261
-0.00413408
-0.00405934
-0.00398367
-0.00390199
-0.00382342
-0.00374071
-0.00365995
-0.00357432
-0.0034888
-0.00340206
-0.00331103
-0.00322282
-0.00312646
-0.00303413
-0.00293322
-0.00283167
-0.00272574
-0.00261146
-0.00249519
-0.00236527
-0.00223364
0.0110115
0.00639571
-0.000132522
-0.00519204
-0.00705992
-0.00667567
-0.0058251
-0.0052476
-0.00502189
-0.00493842
-0.00483678
-0.00477626
-0.0047912
-0.00475492
-0.00469683
-0.00472379
-0.00475188
-0.00474819
-0.00476193
-0.0047569
-0.00474158
-0.00476261
-0.00477742
-0.00478224
-0.00482634
-0.00487365
-0.0048805
-0.0048667
-0.0048345
-0.00478395
-0.00473428
-0.0046813
-0.00462496
-0.00456637
-0.00449923
-0.00442643
-0.00436189
-0.00429199
-0.00421257
-0.00413406
-0.00405932
-0.00398366
-0.00390198
-0.00382342
-0.00374071
-0.00365995
-0.00357432
-0.0034888
-0.00340206
-0.00331103
-0.00322282
-0.00312646
-0.00303413
-0.00293322
-0.00283167
-0.00272574
-0.00261145
-0.00249519
-0.00236527
-0.0022336
0.0105569
0.00631373
-1.88627e-05
-0.00500066
-0.00693382
-0.00662764
-0.00580208
-0.00523045
-0.00500844
-0.00492841
-0.00482948
-0.00477053
-0.00478626
-0.0047506
-0.0046932
-0.00472089
-0.0047495
-0.00474612
-0.00476014
-0.00475533
-0.00474016
-0.00476133
-0.00477625
-0.00478117
-0.0048254
-0.00487284
-0.00487978
-0.00486607
-0.00483398
-0.0047835
-0.00473391
-0.00468101
-0.00462472
-0.00456619
-0.00449909
-0.00442631
-0.0043618
-0.00429192
-0.00421252
-0.00413402
-0.0040593
-0.00398364
-0.00390197
-0.00382341
-0.00374071
-0.00365994
-0.00357432
-0.0034888
-0.00340206
-0.00331103
-0.00322282
-0.00312646
-0.00303413
-0.00293322
-0.00283167
-0.00272574
-0.00261145
-0.00249519
-0.00236528
-0.00223356
0.0101064
0.00621764
9.72301e-05
-0.00480115
-0.00679748
-0.00657354
-0.00577528
-0.00520911
-0.00499052
-0.0049146
-0.00481954
-0.00476291
-0.00477957
-0.00474462
-0.00468815
-0.00471676
-0.0047461
-0.00474321
-0.00475761
-0.00475318
-0.00473828
-0.00475957
-0.00477455
-0.0047796
-0.00482399
-0.00487157
-0.00487863
-0.00486507
-0.00483311
-0.00478277
-0.0047333
-0.0046805
-0.0046243
-0.00456585
-0.00449883
-0.00442611
-0.00436164
-0.00429179
-0.00421242
-0.00413395
-0.00405924
-0.0039836
-0.00390194
-0.00382339
-0.00374069
-0.00365994
-0.00357432
-0.0034888
-0.00340206
-0.00331103
-0.00322282
-0.00312646
-0.00303413
-0.00293323
-0.00283166
-0.00272575
-0.00261145
-0.0024952
-0.00236529
-0.00223352
0.00965919
0.00610908
0.000213029
-0.00459987
-0.00665695
-0.00651723
-0.00574801
-0.00518641
-0.00497015
-0.00489817
-0.00480753
-0.00475375
-0.00477146
-0.00473727
-0.00468181
-0.00471139
-0.00474159
-0.00473931
-0.00475418
-0.0047503
-0.00473585
-0.00475727
-0.00477227
-0.00477741
-0.00482193
-0.00486966
-0.00487689
-0.00486353
-0.00483177
-0.00478162
-0.00473233
-0.00467968
-0.00462361
-0.00456529
-0.0044984
-0.00442577
-0.00436136
-0.00429157
-0.00421225
-0.00413382
-0.00405915
-0.00398353
-0.00390188
-0.00382336
-0.00374067
-0.00365992
-0.00357431
-0.00348879
-0.00340206
-0.00331103
-0.00322282
-0.00312646
-0.00303413
-0.00293323
-0.00283167
-0.00272575
-0.00261145
-0.00249521
-0.00236533
-0.00223348
0.0092192
0.00599017
0.000327528
-0.00439807
-0.00651295
-0.00645905
-0.00572081
-0.00516322
-0.00494842
-0.00488012
-0.00479414
-0.00474355
-0.00476248
-0.00472913
-0.00467464
-0.00470509
-0.00473618
-0.00473455
-0.00474987
-0.00474668
-0.00473287
-0.00475447
-0.00476947
-0.00477464
-0.00481919
-0.004867
-0.00487446
-0.00486139
-0.00482991
-0.00478
-0.00473094
-0.00467849
-0.00462259
-0.00456445
-0.00449773
-0.00442525
-0.00436093
-0.00429122
-0.00421198
-0.00413361
-0.00405899
-0.0039834
-0.00390179
-0.00382329
-0.00374062
-0.00365989
-0.00357429
-0.00348878
-0.00340205
-0.00331103
-0.00322282
-0.00312646
-0.00303413
-0.00293323
-0.00283167
-0.00272576
-0.00261146
-0.00249522
-0.00236537
-0.00223344
0.00878948
0.00586122
0.000439231
-0.00419604
-0.00636507
-0.0063984
-0.00569349
-0.00513976
-0.00492571
-0.00486089
-0.00477973
-0.00473261
-0.00475297
-0.00472054
-0.004667
-0.00469822