/*--------------------------------*- C++ -*----------------------------------*\
| =========                 |                                                 |
| \\      /  F ield         | OpenFOAM: The Open Source CFD Toolbox           |
|  \\    /   O peration     | Version:  v2012                                 |
|   \\  /    A nd           | Website:  www.openfoam.com                      |
|    \\/     M anipulation  |                                                 |
\*---------------------------------------------------------------------------*/
FoamFile
{
    version     2.0;
    format      ascii;
    class       surfaceScalarField;
    location    "0.4";
    object      phi;
}
// * * * * * * * * * * * * * * * * * * * * * * * * * * * * * * * * * * * * * //

dimensions      [0 3 -1 0 0 0 0];
oriented        oriented;


internalField   nonuniform List<scalar> 
15820
(
1.58127e-06
-4.36394e-08
1.54541e-06
1.49189e-08
1.54096e-06
8.18423e-08
1.57669e-06
2.50839e-08
1.60232e-06
-4.79086e-08
1.58481e-06
1.38968e-07
1.57363e-06
1.8334e-07
1.54818e-06
7.56848e-08
1.55145e-06
7.85464e-08
1.55335e-06
7.08526e-09
1.55495e-06
-2.33709e-08
1.55439e-06
-1.07342e-08
1.55884e-06
3.04443e-09
1.5548e-06
3.04362e-08
1.55233e-06
3.70755e-08
1.54599e-06
4.33867e-08
1.54113e-06
5.45945e-08
1.53678e-06
4.82513e-08
1.52513e-06
7.68709e-08
3.67424e-08
1.50765e-06
1.62801e-06
-5.72129e-08
1.596e-06
4.69298e-08
1.58821e-06
8.96304e-08
1.62447e-06
-1.11768e-08
1.64776e-06
-7.11926e-08
1.63687e-06
1.49856e-07
1.62086e-06
1.99353e-07
1.60099e-06
9.55544e-08
1.59706e-06
8.24762e-08
1.60485e-06
-7.09054e-10
1.60041e-06
-1.89339e-08
1.60642e-06
-1.67371e-08
1.60299e-06
6.47105e-09
1.60783e-06
2.55982e-08
1.59626e-06
4.86438e-08
1.59974e-06
3.99044e-08
1.58381e-06
7.05253e-08
1.58943e-06
4.26365e-08
1.56695e-06
9.93477e-08
3.66412e-08
1.56705e-06
1.67402e-06
-6.71965e-08
1.65168e-06
6.9271e-08
1.63654e-06
1.04765e-07
1.67187e-06
-4.65076e-08
1.69077e-06
-9.00908e-08
1.68973e-06
1.50903e-07
1.66889e-06
2.20185e-07
1.65658e-06
1.07866e-07
1.64529e-06
9.377e-08
1.65629e-06
-1.17122e-08
1.64861e-06
-1.12509e-08
1.65674e-06
-2.48639e-08
1.65088e-06
1.23308e-08
1.65691e-06
1.95629e-08
1.64611e-06
5.94406e-08
1.6482e-06
3.78198e-08
1.63595e-06
8.27722e-08
1.63587e-06
4.27143e-08
1.62267e-06
1.12556e-07
4.58075e-08
1.6135e-06
1.72086e-06
-7.28935e-08
1.70858e-06
8.15479e-08
1.68807e-06
1.25276e-07
1.71787e-06
-7.63081e-08
1.73318e-06
-1.05401e-07
1.73908e-06
1.45001e-07
1.71971e-06
2.39553e-07
1.7108e-06
1.16781e-07
1.69803e-06
1.06533e-07
1.7061e-06
-1.97822e-08
1.70078e-06
-5.92904e-09
1.70612e-06
-3.02026e-08
1.70225e-06
1.61998e-08
1.706e-06
1.581e-08
1.69895e-06
6.64957e-08
1.69891e-06
3.78567e-08
1.69013e-06
9.15504e-08
1.68745e-06
4.54013e-08
1.67806e-06
1.21941e-07
5.60575e-08
1.66781e-06
1.77022e-06
-7.52602e-08
1.76517e-06
8.65985e-08
1.74364e-06
1.468e-07
1.76429e-06
-9.69491e-08
1.7772e-06
-1.18318e-07
1.78635e-06
1.35856e-07
1.7731e-06
2.52802e-07
1.76544e-06
1.24439e-07
1.7542e-06
1.17773e-07
1.75804e-06
-2.3617e-08
1.75512e-06
-3.00914e-09
1.75819e-06
-3.32742e-08
1.75534e-06
1.90498e-08
1.75811e-06
1.30359e-08
1.7531e-06
7.15033e-08
1.75285e-06
3.81152e-08
1.74583e-06
9.85704e-08
1.74249e-06
4.87342e-08
1.7353e-06
1.29135e-07
6.60008e-08
1.72535e-06
1.82284e-06
-7.59351e-08
1.82184e-06
8.75959e-08
1.80294e-06
1.65707e-07
1.81393e-06
-1.07939e-07
1.82435e-06
-1.28743e-07
1.83455e-06
1.25662e-07
1.82813e-06
2.59216e-07
1.8221e-06
1.30469e-07
1.81267e-06
1.27207e-07
1.81357e-06
-2.45246e-08
1.81122e-06
-6.56731e-10
1.81322e-06
-3.52691e-08
1.81046e-06
2.18078e-08
1.81288e-06
1.06139e-08
1.80921e-06
7.51763e-08
1.80903e-06
3.82974e-08
1.80367e-06
1.03923e-07
1.79988e-06
5.25226e-08
1.79489e-06
1.34134e-07
7.55435e-08
1.78534e-06
1.87829e-06
-7.60792e-08
1.87939e-06
8.64939e-08
1.8647e-06
1.80404e-07
1.86816e-06
-1.11406e-07
1.8753e-06
-1.35878e-07
1.88545e-06
1.15511e-07
1.88428e-06
2.60384e-07
1.88067e-06
1.34077e-07
1.87285e-06
1.35032e-07
1.8722e-06
-2.38798e-08
1.86937e-06
2.17319e-09
1.87062e-06
-3.6516e-08
1.8679e-06
2.4527e-08
1.86989e-06
8.62132e-09
1.86738e-06
7.7687e-08
1.86709e-06
3.85886e-08
1.86342e-06
1.07597e-07
1.85924e-06
5.66947e-08
1.85624e-06
1.37141e-07
8.45504e-08
1.84723e-06
1.93579e-06
-7.60236e-08
1.93814e-06
8.41438e-08
1.92772e-06
1.90826e-07
1.92663e-06
-1.10312e-07
1.93009e-06
-1.39345e-07
1.9395e-06
1.06103e-07
1.94156e-06
2.58329e-07
1.94051e-06
1.35122e-07
1.9343e-06
1.41249e-07
1.93295e-06
-2.25384e-08
1.92951e-06
5.62065e-09
1.92995e-06
-3.69615e-08
1.92743e-06
2.70443e-08
1.92883e-06
7.22843e-09
1.92734e-06
7.91775e-08
1.92671e-06
3.92142e-08
1.9246e-06
1.09713e-07
1.92011e-06
6.11843e-08
1.91873e-06
1.38514e-07
9.29396e-08
1.91034e-06
1.99492e-06
-7.56229e-08
1.99813e-06
8.09355e-08
1.99141e-06
1.97548e-07
1.9882e-06
-1.07101e-07
1.98835e-06
-1.39503e-07
1.99657e-06
9.7886e-08
2.00023e-06
2.54669e-07
2.00131e-06
1.34047e-07
1.9967e-06
1.45853e-07
1.99512e-06
-2.09594e-08
1.99134e-06
9.39984e-09
1.99094e-06
-3.65583e-08
1.98876e-06
2.92251e-08
1.98941e-06
6.58186e-09
1.9888e-06
7.9785e-08
1.98762e-06
4.03878e-08
1.98687e-06
1.10463e-07
1.98209e-06
6.59727e-08
1.98195e-06
1.38644e-07
1.00667e-07
1.97423e-06
2.05569e-06
-7.46915e-08
2.05946e-06
7.71704e-08
2.0557e-06
2.013e-07
2.05188e-06
-1.03276e-07
2.0495e-06
-1.37124e-07
2.05638e-06
9.10099e-08
2.06061e-06
2.50436e-07
2.06314e-06
1.31514e-07
2.06002e-06
1.48973e-07
2.05841e-06
-1.93437e-08
2.05467e-06
1.31353e-08
2.05344e-06
-3.5326e-08
2.0517e-06
3.09648e-08
2.05149e-06
6.79336e-09
2.05165e-06
7.96278e-08
2.04979e-06
4.22465e-08
2.05013e-06
1.10116e-07
2.04509e-06
7.1021e-08
2.0458e-06
1.37933e-07
1.07688e-07
2.03878e-06
2.11831e-06
-7.31911e-08
2.12236e-06
7.31159e-08
2.12087e-06
2.02793e-07
2.11714e-06
-9.95517e-08
2.11304e-06
-1.33019e-07
2.11867e-06
8.53817e-08
2.12295e-06
2.46155e-07
2.12633e-06
1.28131e-07
2.12447e-06
1.50837e-07
2.12285e-06
-1.77233e-08
2.11947e-06
1.65116e-08
2.11745e-06
-3.32997e-08
2.11623e-06
3.21797e-08
2.11511e-06
7.91502e-09
2.11593e-06
7.88065e-08
2.11334e-06
4.48317e-08
2.11449e-06
1.08975e-07
2.10927e-06
7.62355e-08
2.11046e-06
1.36745e-07
1.13959e-07
2.10419e-06
2.18295e-06
-7.12122e-08
2.1871e-06
6.89651e-08
2.18723e-06
2.02664e-07
2.18385e-06
-9.61645e-08
2.17867e-06
-1.27848e-07
2.18327e-06
8.07881e-08
2.18741e-06
2.42009e-07
2.1912e-06
1.24347e-07
2.19034e-06
1.5169e-07
2.18865e-06
-1.60286e-08
2.18585e-06
1.93126e-08
2.18306e-06
-3.05072e-08
2.18241e-06
3.28247e-08
2.1804e-06
9.92295e-09
2.18179e-06
7.74238e-08
2.17854e-06
4.80754e-08
2.18017e-06
1.07343e-07
2.17493e-06
8.14778e-08
2.17631e-06
1.35367e-07
1.19451e-07
2.17082e-06
2.24974e-06
-6.88946e-08
2.25388e-06
6.48277e-08
2.25511e-06
2.01433e-07
2.25206e-06
-9.31147e-08
2.2463e-06
-1.22084e-07
2.25008e-06
7.69986e-08
2.2541e-06
2.37994e-07
2.25798e-06
1.20462e-07
2.25794e-06
1.51736e-07
2.25605e-06
-1.41437e-08
2.25395e-06
2.14193e-08
2.25042e-06
-2.69814e-08
2.25034e-06
3.29028e-08
2.24754e-06
1.27251e-08
2.24936e-06
7.56001e-08
2.24562e-06
5.18185e-08
2.24746e-06
1.05504e-07
2.24235e-06
8.65836e-08
2.24371e-06
1.34006e-07
1.24161e-07
2.239e-06
2.31872e-06
-6.63701e-08
2.32279e-06
6.07561e-08
2.32474e-06
1.99489e-07
2.32194e-06
-9.0315e-08
2.31591e-06
-1.1605e-07
2.31908e-06
7.38205e-08
2.32305e-06
2.3403e-07
2.32684e-06
1.16666e-07
2.32747e-06
1.51114e-07
2.32526e-06
-1.1941e-08
2.3239e-06
2.27822e-08
2.31969e-06
-2.27693e-08
2.32013e-06
3.24619e-08
2.31667e-06
1.61805e-08
2.31879e-06
7.34806e-08
2.31477e-06
5.5845e-08
2.31657e-06
1.03705e-07
2.31176e-06
9.13916e-08
2.31297e-06
1.32794e-07
1.28106e-07
2.30903e-06
2.38993e-06
-6.37411e-08
2.39391e-06
5.67769e-08
2.39631e-06
1.97093e-07
2.39365e-06
-8.76598e-08
2.38757e-06
-1.09963e-07
2.39027e-06
7.11173e-08
2.39428e-06
2.30015e-07
2.39787e-06
1.1308e-07
2.39908e-06
1.49903e-07
2.39645e-06
-9.30842e-09
2.39583e-06
2.34057e-08
2.391e-06
-1.79452e-08
2.39187e-06
3.1589e-08
2.38794e-06
2.01118e-08
2.39018e-06
7.12427e-08
2.38611e-06
5.99186e-08
2.38766e-06
1.0215e-07
2.38329e-06
9.57663e-08
2.38429e-06
1.31796e-07
1.31323e-07
2.38107e-06
2.46341e-06
-6.10794e-08
2.46727e-06
5.29106e-08
2.46996e-06
1.944e-07
2.46736e-06
-8.50535e-08
2.46136e-06
-1.03968e-07
2.46367e-06
6.88075e-08
2.46783e-06
2.25858e-07
2.47112e-06
1.09791e-07
2.47288e-06
1.4814e-07
2.46975e-06
-6.17025e-09
2.46981e-06
2.33399e-08
2.46448e-06
-1.26137e-08
2.46567e-06
3.04036e-08
2.46146e-06
2.43156e-08
2.46362e-06
6.90887e-08
2.45971e-06
6.38202e-08
2.46087e-06
1.00989e-07
2.45702e-06
9.96163e-08
2.45779e-06
1.31028e-07
1.33863e-07
2.45525e-06
2.53918e-06
-5.84331e-08
2.54291e-06
4.91809e-08
2.54583e-06
1.91488e-07
2.54319e-06
-8.24186e-08
2.53739e-06
-9.8166e-08
2.53934e-06
6.68543e-08
2.54372e-06
2.21484e-07
2.54665e-06
1.06857e-07
2.54895e-06
1.45841e-07
2.54528e-06
-2.49838e-09
2.54594e-06
2.26728e-08
2.54024e-06
-6.90827e-09
2.54159e-06
2.90532e-08
2.53733e-06
2.85709e-08
2.53919e-06
6.7234e-08
2.53564e-06
6.73646e-08
2.53631e-06
1.00321e-07
2.53302e-06
1.02905e-07
2.53359e-06
1.30465e-07
1.35786e-07
2.53166e-06
2.61732e-06
-5.58349e-08
2.62089e-06
4.56165e-08
2.62399e-06
1.88383e-07
2.62127e-06
-7.96949e-08
2.61573e-06
-9.26282e-08
2.61733e-06
6.5251e-08
2.62198e-06
2.1684e-07
2.62452e-06
1.0432e-07
2.62733e-06
1.43024e-07
2.62315e-06
1.68562e-09
2.6243e-06
2.15242e-08
2.61838e-06
-9.88014e-10
2.61972e-06
2.77096e-08
2.61564e-06
3.26552e-08
2.61699e-06
6.58768e-08
2.61394e-06
7.04221e-08
2.61409e-06
1.00169e-07
2.61133e-06
1.0566e-07
2.61174e-06
1.30059e-07
1.37154e-07
2.61037e-06
2.69788e-06
-5.33077e-08
2.70125e-06
4.22507e-08
2.70456e-06
1.85078e-07
2.7017e-06
-7.68357e-08
2.69648e-06
-8.741e-08
2.69772e-06
6.40076e-08
2.70267e-06
2.11892e-07
2.70479e-06
1.02198e-07
2.7081e-06
1.39719e-07
2.70347e-06
6.31488e-09
2.70495e-06
2.00385e-08
2.699e-06
4.96811e-09
2.70015e-06
2.65588e-08
2.69644e-06
3.63663e-08
2.69714e-06
6.51695e-08
2.69464e-06
7.29289e-08
2.69434e-06
1.0047e-07
2.69202e-06
1.07978e-07
2.69232e-06
1.29755e-07
1.38031e-07
2.69145e-06
2.78094e-06
-5.08691e-08
2.78407e-06
3.91196e-08
2.7876e-06
1.81551e-07
2.78456e-06
-7.38047e-08
2.77971e-06
-8.25544e-08
2.78058e-06
6.31379e-08
2.78584e-06
2.06626e-07
2.78755e-06
1.0049e-07
2.79129e-06
1.35981e-07
2.78632e-06
1.12843e-08
2.78798e-06
1.83776e-08
2.78218e-06
1.07721e-08
2.78295e-06
2.57859e-08
2.77977e-06
3.9544e-08
2.77975e-06
6.51958e-08
2.77778e-06
7.48977e-08
2.77715e-06
1.01104e-07
2.77516e-06
1.09968e-07
2.7754e-06
1.29508e-07
1.38473e-07
2.77496e-06
2.86655e-06
-4.85337e-08
2.86941e-06
3.62596e-08
2.87319e-06
1.7777e-07
2.86996e-06
-7.05729e-08
2.8655e-06
-7.80947e-08
2.86599e-06
6.2651e-08
2.87157e-06
2.01046e-07
2.87289e-06
9.91692e-08
2.87698e-06
1.31889e-07
2.8718e-06
1.64596e-08
2.87347e-06
1.67158e-08
2.868e-06
1.62354e-08
2.86823e-06
2.55549e-08
2.86568e-06
4.20963e-08
2.86494e-06
6.59382e-08
2.86341e-06
7.64294e-08
2.86259e-06
1.01919e-07
2.86083e-06
1.1173e-07
2.86105e-06
1.29284e-07
1.38536e-07
2.86099e-06
2.95481e-06
-4.63143e-08
2.95736e-06
3.37059e-08
2.96142e-06
1.73707e-07
2.95797e-06
-6.71188e-08
2.95393e-06
-7.40539e-08
2.95404e-06
6.25447e-08
2.9599e-06
1.9518e-07
2.96089e-06
9.81829e-08
2.96523e-06
1.27549e-07
2.96e-06
2.16882e-08
2.96149e-06
1.52242e-08
2.95653e-06
2.11937e-08
2.9561e-06
2.59847e-08
2.95419e-06
4.40127e-08
2.95284e-06
6.72793e-08
2.95159e-06
7.76872e-08
2.95074e-06
1.02763e-07
2.94913e-06
1.13338e-07
2.94935e-06
1.29068e-07
1.38267e-07
2.94962e-06
3.04578e-06
-4.42222e-08
3.048e-06
3.14902e-08
3.05237e-06
1.69335e-07
3.04868e-06
-6.34282e-08
3.04507e-06
-7.04433e-08
3.04481e-06
6.28019e-08
3.05092e-06
1.89074e-07
3.05165e-06
9.74543e-08
3.05611e-06
1.23088e-07
3.05098e-06
2.6814e-08
3.05215e-06
1.40557e-08
3.04782e-06
2.55252e-08
3.04667e-06
2.7129e-08
3.04532e-06
4.53617e-08
3.04356e-06
6.90466e-08
3.0424e-06
7.88404e-08
3.04165e-06
1.03517e-07
3.04016e-06
1.14826e-07
3.04037e-06
1.28857e-07
1.37711e-07
3.04093e-06
3.13956e-06
-4.22669e-08
3.14141e-06
2.96392e-08
3.14611e-06
1.64635e-07
3.14218e-06
-5.94967e-08
3.13899e-06
-6.72598e-08
3.13841e-06
6.33878e-08
3.14468e-06
1.82796e-07
3.14525e-06
9.6887e-08
3.1497e-06
1.18637e-07
3.14482e-06
3.16949e-08
3.14555e-06
1.33272e-08
3.1419e-06
2.91746e-08
3.14007e-06
2.89572e-08
3.13916e-06
4.62784e-08
3.13715e-06
7.10494e-08
3.13596e-06
8.00313e-08
3.13538e-06
1.04102e-07
3.13401e-06
1.16197e-07
3.1342e-06
1.28662e-07
1.36912e-07
3.135e-06
3.23622e-06
-4.0456e-08
3.23768e-06
2.81736e-08
3.24272e-06
1.59596e-07
3.23855e-06
-5.5332e-08
3.23578e-06
-6.44841e-08
3.23492e-06
6.42493e-08
3.24128e-06
1.76431e-07
3.2418e-06
9.63725e-08
3.24611e-06
1.14325e-07
3.24158e-06
3.6219e-08
3.24181e-06
1.31047e-08
3.23882e-06
3.2162e-08
3.23642e-06
3.13573e-08
3.23576e-06
4.69368e-08
3.2337e-06
7.31092e-08
3.23237e-06
8.13621e-08
3.23199e-06
1.04485e-07
3.23076e-06
1.17426e-07
3.23093e-06
1.28492e-07
1.35913e-07
3.23193e-06
3.33584e-06
-3.87945e-08
3.33691e-06
2.71058e-08
3.34229e-06
1.54221e-07
3.33791e-06
-5.09557e-08
3.33551e-06
-6.20805e-08
3.33444e-06
6.53162e-08
3.34079e-06
1.7008e-07
3.34136e-06
9.57994e-08
3.34543e-06
1.10263e-07
3.34133e-06
4.03167e-08
3.34104e-06
1.33951e-08
3.33862e-06
3.45769e-08
3.33581e-06
3.41674e-08
3.33524e-06
4.75129e-08
3.33327e-06
7.5078e-08
3.33173e-06
8.28978e-08
3.33155e-06
1.04664e-07
3.3305e-06
1.18476e-07
3.33064e-06
1.28356e-07
1.34757e-07
3.3318e-06
3.43853e-06
-3.72846e-08
3.4392e-06
2.64394e-08
3.44489e-06
1.48526e-07
3.44034e-06
-4.64049e-08
3.43826e-06
-5.99965e-08
3.43707e-06
6.65021e-08
3.4433e-06
1.63852e-07
3.44404e-06
9.5064e-08
3.44777e-06
1.0653e-07
3.44412e-06
4.39678e-08
3.44337e-06
1.41478e-08
3.44139e-06
3.6552e-08
3.43834e-06
3.72216e-08
3.4377e-06
4.81474e-08
3.43592e-06
7.68608e-08
3.43416e-06
8.46536e-08
3.43416e-06
1.0467e-07
3.43333e-06
1.19301e-07
3.43343e-06
1.28256e-07
1.3349e-07
3.4347e-06
3.54437e-06
-3.59252e-08
3.54464e-06
2.61677e-08
3.55062e-06
1.42542e-07
3.54595e-06
-4.17338e-08
3.54412e-06
-5.81636e-08
3.54291e-06
6.77088e-08
3.54891e-06
1.57853e-07
3.54989e-06
9.40838e-08
3.55326e-06
1.03167e-07
3.55002e-06
4.72028e-08
3.5489e-06
1.52662e-08
3.54723e-06
3.82289e-08
3.54406e-06
4.03861e-08
3.54327e-06
4.8935e-08
3.54173e-06
7.84068e-08
3.53977e-06
8.66091e-08
3.53989e-06
1.04553e-07
3.53933e-06
1.19855e-07
3.53941e-06
1.28185e-07
1.32155e-07
3.54074e-06
3.65345e-06
-3.47119e-08
3.65334e-06
2.62729e-08
3.65957e-06
1.36319e-07
3.65485e-06
-3.70138e-08
3.65318e-06
-5.64981e-08
3.65206e-06
6.88294e-08
3.65773e-06
1.52183e-07
3.65901e-06
9.28074e-08
3.662e-06
1.00173e-07
3.65911e-06
5.0098e-08
3.65774e-06
1.6636e-08
3.65624e-06
3.97201e-08
3.65306e-06
4.35756e-08
3.65206e-06
4.99296e-08
3.65077e-06
7.96966e-08
3.64867e-06
8.8713e-08
3.64884e-06
1.04382e-07
3.64859e-06
1.20102e-07
3.64865e-06
1.28126e-07
1.30788e-07
3.65002e-06
3.76587e-06
-3.36362e-08
3.76541e-06
2.67253e-08
3.77181e-06
1.29926e-07
3.76713e-06
-3.23332e-08
3.76553e-06
-5.49047e-08
3.76461e-06
6.97551e-08
3.76987e-06
1.46921e-07
3.77145e-06
9.12222e-08
3.77413e-06
9.74999e-08
3.77147e-06
5.27547e-08
3.76995e-06
1.81612e-08
3.76858e-06
4.10892e-08
3.7654e-06
4.67568e-08
3.76418e-06
5.11479e-08
3.76315e-06
8.0727e-08
3.76095e-06
9.09081e-08
3.76112e-06
1.04215e-07
3.76119e-06
1.20027e-07
3.76127e-06
1.28049e-07
1.29423e-07
3.76264e-06
3.88172e-06
-3.26857e-08
3.88096e-06
2.74828e-08
3.88744e-06
1.23449e-07
3.8829e-06
-2.77928e-08
3.88128e-06
-5.3284e-08
3.88065e-06
7.03859e-08
3.88545e-06
1.42117e-07
3.88731e-06
8.93622e-08
3.88975e-06
9.50608e-08
3.88723e-06
5.52789e-08
3.8856e-06
1.97843e-08
3.88434e-06
4.23493e-08
3.88117e-06
4.99321e-08
3.87973e-06
5.25822e-08
3.87895e-06
8.15159e-08
3.87674e-06
9.31182e-08
3.87684e-06
1.04113e-07
3.87723e-06
1.19634e-07
3.87736e-06
1.27915e-07
1.28086e-07
3.8787e-06
4.00111e-06
-3.18437e-08
4.00011e-06
2.84913e-08
4.00656e-06
1.16991e-07
4.00228e-06
-2.35054e-08
4.00053e-06
-5.15364e-08
4.00028e-06
7.06373e-08
4.00461e-06
1.3779e-07
4.00667e-06
8.73021e-08
4.00897e-06
9.27518e-08
4.0065e-06
5.77498e-08
4.00479e-06
2.1494e-08
4.00366e-06
4.34798e-08
4.00048e-06
5.31145e-08
3.99884e-06
5.42186e-08
3.99827e-06
8.20939e-08
3.99613e-06
9.52521e-08
3.9961e-06
1.0414e-07
3.99681e-06
1.18929e-07
3.99703e-06
1.2769e-07
1.26797e-07
3.99832e-06
4.12415e-06
-3.10891e-08
4.12296e-06
2.96842e-08
4.12928e-06
1.10672e-07
4.12536e-06
-1.95891e-08
4.1234e-06
-4.95717e-08
4.12358e-06
7.04523e-08
4.12746e-06
1.33914e-07
4.12961e-06
8.51463e-08
4.13188e-06
9.04829e-08
4.12943e-06
6.01978e-08
4.12761e-06
2.33175e-08
4.12663e-06
4.44624e-08
4.12346e-06
5.62847e-08
4.12161e-06
5.60718e-08
4.12123e-06
8.24716e-08
4.11924e-06
9.72438e-08
4.11904e-06
1.04334e-07
4.12004e-06
1.17932e-07
4.12039e-06
1.27338e-07
1.25574e-07
4.12161e-06
4.25094e-06
-3.0397e-08
4.24964e-06
3.09829e-08
4.25569e-06
1.04623e-07
4.25226e-06
-1.61615e-08
4.25001e-06
-4.73197e-08
4.25065e-06
6.9811e-08
4.25414e-06
1.30425e-07
4.25627e-06
8.30139e-08
4.25856e-06
8.81936e-08
4.25616e-06
6.26022e-08
4.25416e-06
2.53159e-08
4.25335e-06
4.52751e-08
4.25022e-06
5.94136e-08
4.24813e-06
5.81572e-08
4.24794e-06
8.26676e-08
4.24615e-06
9.90265e-08
4.24577e-06
1.04716e-07
4.24702e-06
1.16687e-07
4.24755e-06
1.26808e-07
1.24434e-07
4.24869e-06
4.38159e-06
-2.97382e-08
4.38028e-06
3.22971e-08
4.38592e-06
9.8984e-08
4.38308e-06
-1.33263e-08
4.38051e-06
-4.47445e-08
4.38157e-06
6.87469e-08
4.38478e-06
1.27218e-07
4.38678e-06
8.10184e-08
4.3891e-06
8.58664e-08
4.3868e-06
6.49073e-08
4.38457e-06
2.75423e-08
4.38391e-06
4.59333e-08
4.38088e-06
6.24463e-08
4.37856e-06
6.04782e-08
4.37851e-06
8.27219e-08
4.377e-06
1.00529e-07
4.37641e-06
1.05304e-07
4.37786e-06
1.15239e-07
4.37862e-06
1.26049e-07
1.23391e-07
4.37966e-06
4.51623e-06
-2.90807e-08
4.515e-06
3.35261e-08
4.52009e-06
9.38975e-08
4.51793e-06
-1.11669e-08
4.51503e-06
-4.18516e-08
4.51643e-06
6.73539e-08
4.51949e-06
1.24153e-07
4.52127e-06
7.92453e-08
4.5236e-06
8.35282e-08
4.52147e-06
6.70453e-08
4.51898e-06
3.00265e-08
4.51844e-06
4.64785e-08
4.51556e-06
6.53212e-08
4.51302e-06
6.30183e-08
4.51305e-06
8.26978e-08
4.51189e-06
1.01682e-07
4.51111e-06
1.06091e-07
4.51268e-06
1.13667e-07
4.51373e-06
1.24997e-07
1.2245e-07
4.51467e-06
4.65497e-06
-2.83897e-08
4.65393e-06
3.4561e-08
4.65833e-06
8.95027e-08
4.65689e-06
-9.73431e-09
4.65374e-06
-3.86965e-08
4.65532e-06
6.57752e-08
4.65838e-06
1.21088e-07
4.65989e-06
7.77349e-08
4.66218e-06
8.12389e-08
4.66026e-06
6.89637e-08
4.65753e-06
3.27574e-08
4.65703e-06
4.69819e-08
4.65438e-06
6.79704e-08
4.65165e-06
6.57477e-08
4.65168e-06
8.26704e-08
4.65094e-06
1.02424e-07
4.64999e-06
1.0704e-07
4.65158e-06
1.12079e-07
4.65299e-06
1.23586e-07
1.2159e-07
4.65385e-06
4.79793e-06
-2.76295e-08
4.7972e-06
3.52871e-08
4.80078e-06
8.59294e-08
4.80008e-06
-9.03814e-09
4.79677e-06
-3.53892e-08
4.79837e-06
6.41799e-08
4.80154e-06
1.17914e-07
4.80281e-06
7.64657e-08
4.80496e-06
7.90922e-08
4.8033e-06
7.06267e-08
4.80036e-06
3.56923e-08
4.79983e-06
4.75179e-08
4.79746e-06
7.03401e-08
4.79457e-06
6.86382e-08
4.79455e-06
8.26901e-08
4.79424e-06
1.02728e-07
4.7932e-06
1.08077e-07
4.79468e-06
1.10603e-07
4.7965e-06
1.21769e-07
1.20751e-07
4.79734e-06
4.94525e-06
-2.67645e-08
4.94495e-06
3.55917e-08
4.94759e-06
8.32876e-08
4.94759e-06
-9.04013e-09
4.94429e-06
-3.20916e-08
4.94573e-06
6.27399e-08
4.94907e-06
1.14574e-07
4.95017e-06
7.53708e-08
4.95208e-06
7.71761e-08
4.95067e-06
7.20376e-08
4.9476e-06
3.87683e-08
4.94698e-06
4.81351e-08
4.9449e-06
7.24187e-08
4.94191e-06
7.16296e-08
4.94178e-06
8.28168e-08
4.94191e-06
1.026e-07
4.94091e-06
1.09074e-07
4.94212e-06
1.094e-07
4.94435e-06
1.19534e-07
1.19823e-07
4.94528e-06
5.09707e-06
-2.57616e-08
5.09729e-06
3.53705e-08
5.09893e-06
8.16478e-08
5.09953e-06
-9.63699e-09
5.09645e-06
-2.90091e-08
5.09758e-06
6.16054e-08
5.10107e-06
1.11086e-07
5.10209e-06
7.43498e-08
5.10372e-06
7.55434e-08
5.1025e-06
7.32634e-08
5.09938e-06
4.18842e-08
5.09864e-06
4.888e-08
5.09684e-06
7.42184e-08
5.09383e-06
7.46371e-08
5.09354e-06
8.3107e-08
5.09406e-06
1.02081e-07
5.09323e-06
1.09898e-07
5.09408e-06
1.08552e-07
5.09665e-06
1.16967e-07
1.18661e-07
5.09781e-06
5.25353e-06
-2.45931e-08
5.25436e-06
3.45378e-08
5.25502e-06
8.09865e-08
5.256e-06
-1.06145e-08
5.25335e-06
-2.63584e-08
5.25409e-06
6.08642e-08
5.25764e-06
1.07535e-07
5.25871e-06
7.32874e-08
5.26004e-06
7.42064e-08
5.2589e-06
7.44047e-08
5.25582e-06
4.49607e-08
5.25497e-06
4.97383e-08
5.2534e-06
7.57847e-08
5.25045e-06
7.75897e-08
5.24998e-06
8.35756e-08
5.2508e-06
1.01259e-07
5.25028e-06
1.10421e-07
5.25077e-06
1.08057e-07
5.2535e-06
1.14237e-07
1.17119e-07
5.25505e-06
5.41478e-06
-2.32389e-08
5.41628e-06
3.30367e-08
5.4161e-06
8.1168e-08
5.41713e-06
-1.16409e-08
5.41511e-06
-2.43425e-08
5.41545e-06
6.05223e-08
5.41893e-06
1.04054e-07
5.42013e-06
7.20902e-08
5.4212e-06
7.31381e-08
5.42005e-06
7.55532e-08
5.41706e-06
4.79561e-08
5.41611e-06
5.06843e-08
5.41476e-06
7.71312e-08
5.41189e-06
8.04655e-08
5.41127e-06
8.41976e-08
5.4123e-06
1.00225e-07
5.41218e-06
1.10544e-07
5.41235e-06
1.07879e-07
5.41505e-06
1.11538e-07
1.15089e-07
5.41708e-06
5.58098e-06
-2.16875e-08
5.58318e-06
3.08423e-08
5.58232e-06
8.20227e-08
5.58305e-06
-1.23722e-08
5.58183e-06
-2.31167e-08
5.58185e-06
6.05028e-08
5.5851e-06
1.00801e-07
5.58649e-06
7.07041e-08
5.58734e-06
7.2282e-08
5.58613e-06
7.6766e-08
5.5832e-06
5.08882e-08
5.58221e-06
5.16694e-08
5.58109e-06
7.82543e-08
5.57828e-06
8.32726e-08
5.57756e-06
8.49214e-08
5.57872e-06
9.90596e-08
5.57901e-06
1.10255e-07
5.57901e-06
1.07884e-07
5.58148e-06
1.09068e-07
1.12551e-07
5.58402e-06
5.75229e-06
-1.99365e-08
5.75517e-06
2.79646e-08
5.75383e-06
8.33616e-08
5.75396e-06
-1.25013e-08
5.7536e-06
-2.27567e-08
5.75344e-06
6.06643e-08
5.75632e-06
9.79145e-08
5.75788e-06
6.91422e-08
5.75863e-06
7.15329e-08
5.75732e-06
7.80843e-08
5.7544e-06
5.37985e-08
5.75341e-06
5.26668e-08
5.75255e-06
7.91159e-08
5.7498e-06
8.60132e-08
5.74899e-06
8.57368e-08
5.75025e-06
9.77977e-08
5.75092e-06
1.09584e-07
5.75092e-06
1.07882e-07
5.75299e-06
1.06998e-07
1.096e-07
5.75595e-06
5.92888e-06
-1.79925e-08
5.93239e-06
2.44472e-08
5.93077e-06
8.49817e-08
5.93005e-06
-1.17802e-08
5.93053e-06
-2.32357e-08
5.93038e-06
6.08112e-08
5.93279e-06
9.55085e-08
5.93446e-06
6.74685e-08
5.93522e-06
7.07776e-08
5.93379e-06
7.9515e-08
5.93084e-06
5.67459e-08
5.92985e-06
5.36609e-08
5.92927e-06
7.96898e-08
5.92666e-06
8.86266e-08
5.92569e-06
8.67044e-08
5.92705e-06
9.64405e-08
5.92809e-06
1.08545e-07
5.92826e-06
1.07707e-07
5.92985e-06
1.05414e-07
1.06451e-07
5.933e-06
6.11091e-06
-1.58724e-08
6.11499e-06
2.03666e-08
6.1133e-06
8.66687e-08
6.11155e-06
-1.00328e-08
6.11274e-06
-2.44194e-08
6.11284e-06
6.07115e-08
6.1147e-06
9.36469e-08
6.11638e-06
6.57862e-08
6.11723e-06
6.99296e-08
6.11573e-06
8.10147e-08
6.1127e-06
5.97755e-08
6.11167e-06
5.46937e-08
6.11144e-06
7.99209e-08
6.10902e-06
9.10446e-08
6.10782e-06
8.79055e-08
6.10932e-06
9.49346e-08
6.11063e-06
1.07241e-07
6.11114e-06
1.072e-07
6.11228e-06
1.04271e-07
1.03401e-07
6.11533e-06
6.29857e-06
-1.36026e-08
6.30311e-06
1.58251e-08
6.30156e-06
8.82126e-08
6.29871e-06
-7.18066e-09
6.30036e-06
-2.60666e-08
6.30093e-06
6.01347e-08
6.30225e-06
9.23337e-08
6.30382e-06
6.42176e-08
6.3048e-06
6.89427e-08
6.30332e-06
8.25019e-08
6.30017e-06
6.29194e-08
6.29906e-06
5.58083e-08
6.29918e-06
7.97992e-08
6.29705e-06
9.31755e-08
6.29556e-06
8.9392e-08
6.29724e-06
9.32609e-08
6.2987e-06
1.05772e-07
6.29961e-06
1.06298e-07
6.30051e-06
1.03372e-07
1.00746e-07
6.30316e-06
6.49203e-06
-1.12186e-08
6.49689e-06
1.09616e-08
6.4957e-06
8.93996e-08
6.49177e-06
-3.24659e-09
6.49357e-06
-2.78614e-08
6.4948e-06
5.8898e-08
6.49563e-06
9.15094e-08
6.49697e-06
6.28786e-08
6.4981e-06
6.78085e-08
6.4967e-06
8.38964e-08
6.49345e-06
6.6172e-08
6.49221e-06
5.70522e-08
6.49265e-06
7.9356e-08
6.49094e-06
9.48893e-08
6.48913e-06
9.11978e-08
6.49089e-06
9.14994e-08
6.49256e-06
1.04104e-07
6.49377e-06
1.05093e-07
6.4947e-06
1.02436e-07
9.86932e-08
6.49676e-06
6.69148e-06
-8.76351e-09
6.69647e-06
5.97111e-09
6.69587e-06
9e-08
6.69097e-06
1.65908e-09
6.69256e-06
-2.94549e-08
6.69455e-06
5.69034e-08
6.69504e-06
9.10248e-08
6.69602e-06
6.19015e-08
6.6973e-06
6.65265e-08
6.69604e-06
8.51505e-08
6.69274e-06
6.94765e-08
6.69133e-06
5.84563e-08
6.69199e-06
7.87044e-08
6.69088e-06
9.59933e-08
6.68873e-06
9.33494e-08
6.69044e-06
8.97951e-08
6.69243e-06
1.02113e-07
6.69377e-06
1.03745e-07
6.69498e-06
1.01229e-07
9.72696e-08
6.6964e-06
6.89711e-06
-6.28683e-09
6.90201e-06
1.07901e-09
6.9022e-06
8.98016e-08
6.8965e-06
7.36125e-09
6.89757e-06
-3.05228e-08
6.90032e-06
5.41573e-08
6.90066e-06
9.06802e-08
6.90119e-06
6.13686e-08
6.90256e-06
6.51558e-08
6.90151e-06
8.62046e-08
6.89821e-06
7.27809e-08
6.89663e-06
6.00297e-08
6.89739e-06
7.7943e-08
6.89701e-06
9.63736e-08
6.89461e-06
9.5751e-08
6.89604e-06
8.83651e-08
6.89849e-06
9.96685e-08
6.89981e-06
1.02423e-07
6.90143e-06
9.96084e-08
9.63069e-08
6.90239e-06
7.10912e-06
-3.84064e-09
7.11371e-06
-3.51352e-09
7.11485e-06
8.86632e-08
7.10857e-06
1.3641e-08
7.10885e-06
-3.08037e-08
7.11224e-06
5.07655e-08
7.11265e-06
9.02662e-08
7.11272e-06
6.12993e-08
7.11411e-06
6.377e-08
7.11327e-06
8.70391e-08
7.11001e-06
7.60487e-08
7.10833e-06
6.17045e-08
7.10907e-06
7.72076e-08
7.10946e-06
9.5978e-08
7.10705e-06
9.81681e-08
7.1079e-06
8.75073e-08
7.1109e-06
9.66687e-08
7.11214e-06
1.01182e-07
7.11414e-06
9.76108e-08
9.55053e-08
7.11494e-06
7.32768e-06
-1.47763e-09
7.33181e-06
-7.64286e-09
7.33395e-06
8.65236e-08
7.32733e-06
2.02591e-08
7.32666e-06
-3.01286e-08
7.33051e-06
4.69163e-08
7.33118e-06
8.95954e-08
7.33082e-06
6.16572e-08
7.33214e-06
6.2449e-08
7.33155e-06
8.76297e-08
7.32831e-06
7.92906e-08
7.32661e-06
6.3407e-08
7.32724e-06
7.65778e-08
7.32835e-06
9.48606e-08
7.32626e-06
1.00262e-07
7.32627e-06
8.75e-08
7.32982e-06
9.31127e-08
7.3311e-06
9.9903e-08
7.33327e-06
9.54476e-08
9.45567e-08
7.33422e-06
7.55301e-06
7.55675e-10
7.55656e-06
-1.11892e-08
7.55967e-06
8.34113e-08
7.55298e-06
2.6945e-08
7.55127e-06
-2.84169e-08
7.55534e-06
4.28457e-08
7.55639e-06
8.85449e-08
7.5557e-06
6.235e-08
7.55689e-06
6.12628e-08
7.55656e-06
8.79574e-08
7.55333e-06
8.25187e-08
7.55163e-06
6.51103e-08
7.55214e-06
7.60606e-08
7.5538e-06
9.32064e-08
7.55244e-06
1.01616e-07
7.55146e-06
8.84858e-08
7.55536e-06
8.92091e-08
7.55693e-06
9.83291e-08
7.55902e-06
9.33593e-08
9.32531e-08
7.56033e-06
7.78529e-06
2.82038e-09
7.78818e-06
-1.40719e-08
7.79217e-06
7.94153e-08
7.78568e-06
3.34408e-08
7.78295e-06
-2.56939e-08
7.78699e-06
3.88093e-08
7.78845e-06
8.70892e-08
7.78757e-06
6.32283e-08
7.78857e-06
6.02624e-08
7.78852e-06
8.80025e-08
7.7853e-06
8.5738e-08
7.78357e-06
6.6847e-08
7.78402e-06
7.56055e-08
7.78595e-06
9.1277e-08
7.78569e-06
1.01874e-07
7.78383e-06
9.03483e-08
7.78763e-06
8.5412e-08
7.78983e-06
9.61263e-08
7.79167e-06
9.15181e-08
9.15429e-08
7.79338e-06
8.02474e-06
4.68888e-09
8.02691e-06
-1.6251e-08
8.03166e-06
7.46708e-08
8.02558e-06
3.95211e-08
8.02195e-06
-2.20651e-08
8.02571e-06
3.5049e-08
8.02753e-06
8.52693e-08
8.02661e-06
6.41474e-08
8.02744e-06
5.94299e-08
8.02768e-06
8.77683e-08
8.02449e-06
8.89299e-08
8.02264e-06
6.86955e-08
8.0231e-06
7.51446e-08
8.02506e-06
8.93155e-08
8.02601e-06
1.00923e-07
8.0237e-06
9.26553e-08
8.0268e-06
8.23119e-08
8.02992e-06
9.30109e-08
8.03149e-06
8.99497e-08
8.95046e-08
8.03353e-06
8.27155e-06
6.3424e-09
8.27302e-06
-1.77236e-08
8.27832e-06
6.93698e-08
8.27286e-06
4.49816e-08
8.26848e-06
-1.76863e-08
8.27178e-06
3.17555e-08
8.27387e-06
8.31722e-08
8.27301e-06
6.5006e-08
8.27374e-06
5.8705e-08
8.27427e-06
8.72408e-08
8.27116e-06
9.20336e-08
8.26907e-06
7.07885e-08
8.26962e-06
7.45927e-08
8.27139e-06
8.75429e-08
8.27345e-06
9.88661e-08
8.27128e-06
9.48316e-08
8.27319e-06
8.03944e-08
8.27711e-06
8.90916e-08
8.27868e-06
8.83851e-08
8.72366e-08
8.28094e-06
8.52594e-06
7.77225e-09
8.52674e-06
-1.85218e-08
8.53238e-06
6.37322e-08
8.52771e-06
4.96545e-08
8.52275e-06
-1.27334e-08
8.52547e-06
2.90409e-08
8.52773e-06
8.09153e-08
8.52697e-06
6.5758e-08
8.52763e-06
5.80524e-08
8.52854e-06
8.63234e-08
8.5256e-06
9.498e-08
8.52313e-06
7.3255e-08
8.52384e-06
7.38864e-08
8.52526e-06
8.61235e-08
8.52816e-06
9.59607e-08
8.52666e-06
9.63325e-08
8.52722e-06
7.9839e-08
8.53151e-06
8.48002e-08
8.53342e-06
8.64706e-08
8.48025e-08
8.53586e-06
8.78815e-06
8.9767e-09
8.78833e-06
-1.87001e-08
8.7941e-06
5.79639e-08
8.79031e-06
5.34409e-08
8.78497e-06
-7.39698e-09
8.78707e-06
2.69423e-08
8.78938e-06
7.86092e-08
8.78868e-06
6.64553e-08
8.78931e-06
5.74243e-08
8.79071e-06
8.49254e-08
8.78805e-06
9.76364e-08
8.78512e-06
7.61861e-08
8.78595e-06
7.306e-08
8.78703e-06
8.50364e-08
8.79034e-06
9.26582e-08
8.78998e-06
9.66847e-08
8.78928e-06
8.05431e-08
8.79348e-06
8.0596e-08
8.79593e-06
8.40275e-08
8.22245e-08
8.79851e-06
9.0584e-06
9.9619e-09
9.05803e-06
-1.83331e-08
9.06374e-06
5.22527e-08
9.06089e-06
5.62974e-08
9.05535e-06
-1.86199e-09
9.05683e-06
2.54614e-08
9.05911e-06
7.63329e-08
9.05838e-06
6.71866e-08
9.05902e-06
5.67846e-08
9.06094e-06
8.30056e-08
9.05878e-06
9.97971e-08
9.05535e-06
7.96185e-08
9.05614e-06
7.2261e-08
9.05713e-06
8.405e-08
9.06026e-06
8.95331e-08
9.06135e-06
9.55931e-08
9.05984e-06
8.2052e-08
9.0634e-06
7.70375e-08
9.06642e-06
8.10012e-08
7.94868e-08
9.06916e-06
9.33694e-06
1.07369e-08
9.33611e-06
-1.75053e-08
9.3416e-06
4.67629e-08
9.33967e-06
5.8225e-08
9.33411e-06
3.70166e-09
9.33499e-06
2.45816e-08
9.33718e-06
7.41362e-08
9.33637e-06
6.79958e-08
9.33697e-06
5.61934e-08
9.33941e-06
8.05615e-08
9.338e-06
1.01211e-07
9.33411e-06
8.35073e-08
9.33467e-06
7.17018e-08
9.33583e-06
8.28908e-08
9.33837e-06
8.69924e-08
9.34085e-06
9.3109e-08
9.33925e-06
8.36559e-08
9.34165e-06
7.46323e-08
9.34515e-06
7.75032e-08
7.65425e-08
9.34809e-06
9.62401e-06
1.13133e-08
9.6228e-06
-1.62936e-08
9.62796e-06
4.16024e-08
9.6269e-06
5.92865e-08
9.62145e-06
9.15386e-09
9.62179e-06
2.42386e-08
9.6239e-06
7.20262e-08
9.62299e-06
6.89036e-08
9.62337e-06
5.58108e-08
9.6263e-06
7.76338e-08
9.6259e-06
1.01619e-07
9.62172e-06
8.76828e-08
9.62178e-06
7.16375e-08
9.6233e-06
8.13717e-08
9.62518e-06
8.51147e-08
9.62863e-06
8.9662e-08