/*--------------------------------*- C++ -*----------------------------------*\
| =========                 |                                                 |
| \\      /  F ield         | OpenFOAM: The Open Source CFD Toolbox           |
|  \\    /   O peration     | Version:  v2012                                 |
|   \\  /    A nd           | Website:  www.openfoam.com                      |
|    \\/     M anipulation  |                                                 |
\*---------------------------------------------------------------------------*/
FoamFile
{
    version     2.0;
    format      ascii;
    class       volVectorField;
    location    "0.4";
    object      U;
}
// * * * * * * * * * * * * * * * * * * * * * * * * * * * * * * * * * * * * * //

dimensions      [0 1 -1 0 0 0 0];


internalField   nonuniform List<vector> 
8000
(
(0.873583 -0.000309062 0)
(1.13609 -0.000171879 0)
(0.84682 0.000900093 0)
(1.11032 0.000685538 0)
(0.912133 -0.000356112 0)
(1.12563 0.00194896 0)
(0.904912 0.00293642 0)
(1.09853 0.000998361 0)
(0.885721 0.00157484 0)
(1.0879 0.000198952 0)
(0.901346 -0.000533947 0)
(1.07923 -0.000267466 0)
(0.909708 0.000153481 0)
(1.07699 0.000871505 0)
(0.910455 0.00108771 0)
(1.06918 0.00145165 0)
(0.905764 0.00187112 0)
(1.06009 0.00204007 0)
(0.899049 0.00313904 0)
(1.05028 0.0014322 0)
(0.886567 -0.000535088 0)
(1.12174 0.000432118 0)
(0.864602 0.0010563 0)
(1.09286 5.78392e-05 0)
(0.927486 -0.000904111 0)
(1.10702 0.00221192 0)
(0.926711 0.00314257 0)
(1.07617 0.00161921 0)
(0.913545 0.0015757 0)
(1.059 9.9704e-05 0)
(0.933489 -0.000536376 0)
(1.04563 -0.000304124 0)
(0.947224 7.6167e-05 0)
(1.03651 0.000872955 0)
(0.956239 0.00138347 0)
(1.02026 0.00150396 0)
(0.961392 0.00244656 0)
(1.00081 0.00188052 0)
(0.965456 0.00415831 0)
(0.97944 0.00136735 0)
(0.909565 -0.0006363 0)
(1.096 0.000661492 0)
(0.895859 0.00112769 0)
(1.06366 -0.000392252 0)
(0.951441 -0.00115667 0)
(1.07621 0.00235415 0)
(0.957951 0.00350893 0)
(1.04548 0.0018873 0)
(0.949114 0.00171683 0)
(1.02536 -0.000142055 0)
(0.966859 -0.000344583 0)
(1.01385 -0.000551547 0)
(0.977556 0.000278214 0)
(1.00702 0.000660233 0)
(0.983005 0.00182922 0)
(0.996494 0.0013463 0)
(0.982586 0.00306784 0)
(0.985082 0.00173438 0)
(0.97815 0.00487253 0)
(0.975551 0.00208915 0)
(0.936362 -0.000713396 0)
(1.06624 0.000841754 0)
(0.930034 0.00135741 0)
(1.03371 -0.000824497 0)
(0.972967 -0.00138838 0)
(1.04574 0.00229295 0)
(0.983068 0.00385765 0)
(1.02194 0.00204678 0)
(0.974445 0.00198425 0)
(1.00453 -0.000366131 0)
(0.9848 -0.000181886 0)
(0.999052 -0.000724458 0)
(0.9895 0.000414235 0)
(0.9967 0.000518002 0)
(0.990547 0.00209838 0)
(0.991918 0.00133867 0)
(0.98713 0.00343188 0)
(0.984944 0.00183228 0)
(0.98071 0.00540873 0)
(0.978576 0.00266062 0)
(0.960427 -0.000750166 0)
(1.04033 0.000931757 0)
(0.958247 0.00162583 0)
(1.01187 -0.00115982 0)
(0.986141 -0.00158544 0)
(1.0236 0.00215961 0)
(0.996705 0.00413737 0)
(1.01004 0.00219998 0)
(0.987623 0.00222924 0)
(0.996744 -0.000490585 0)
(0.991455 -9.43268e-05 0)
(0.995156 -0.000821871 0)
(0.992769 0.000496868 0)
(0.994423 0.000423029 0)
(0.992444 0.0022949 0)
(0.992046 0.00134637 0)
(0.989245 0.00374887 0)
(0.986662 0.00197632 0)
(0.983562 0.00580151 0)
(0.981466 0.00312 0)
(0.977975 -0.000760984 0)
(1.02234 0.000958939 0)
(0.977305 0.00187151 0)
(1.00044 -0.00136041 0)
(0.991855 -0.0017499 0)
(1.01047 0.00200864 0)
(1.00172 0.00430169 0)
(1.00606 0.00232967 0)
(0.993832 0.0024326 0)
(0.995822 -0.000530298 0)
(0.993955 -4.32786e-05 0)
(0.995093 -0.000882123 0)
(0.993995 0.000573379 0)
(0.994378 0.000347493 0)
(0.993477 0.00243983 0)
(0.993132 0.00135739 0)
(0.991134 0.00398757 0)
(0.988882 0.00212516 0)
(0.986519 0.00606911 0)
(0.984836 0.00359821 0)
(0.988694 -0.000763531 0)
(1.01192 0.000954632 0)
(0.988461 0.00207257 0)
(0.99675 -0.00144123 0)
(0.993737 -0.00187523 0)
(1.00349 0.00185016 0)
(1.00254 0.00435792 0)
(1.0053 0.00241825 0)
(0.997178 0.00260518 0)
(0.997286 -0.000527501 0)
(0.995647 1.5014e-05 0)
(0.996001 -0.000922813 0)
(0.995028 0.000651276 0)
(0.995065 0.000279671 0)
(0.994441 0.00253965 0)
(0.9945 0.00136409 0)
(0.992917 0.00414722 0)
(0.991204 0.00230082 0)
(0.989353 0.00624727 0)
(0.988187 0.004064 0)
(0.994371 -0.000764571 0)
(1.00649 0.00093468 0)
(0.994428 0.00222192 0)
(0.997005 -0.00144547 0)
(0.994581 -0.00195082 0)
(0.999879 0.00169725 0)
(1.00202 0.00434337 0)
(1.00519 0.00245889 0)
(0.999348 0.00274502 0)
(0.999101 -0.000503804 0)
(0.997274 9.15808e-05 0)
(0.997058 -0.000946014 0)
(0.996075 0.000726722 0)
(0.99596 0.000226417 0)
(0.995399 0.00260154 0)
(0.995751 0.00138134 0)
(0.994543 0.00424957 0)
(0.993207 0.00249404 0)
(0.991862 0.00634022 0)
(0.991043 0.00449732 0)
(0.997135 -0.000763089 0)
(1.0036 0.000903976 0)
(0.997492 0.00232246 0)
(0.99853 -0.00141102 0)
(0.995489 -0.00197538 0)
(0.998002 0.00156038 0)
(1.00133 0.00429035 0)
(1.00488 0.00245476 0)
(1.0008 0.00285173 0)
(1.00055 -0.000471065 0)
(0.998738 0.000179182 0)
(0.998009 -0.000947351 0)
(0.997042 0.000794247 0)
(0.996783 0.000194283 0)
(0.99626 0.00263246 0)
(0.996689 0.00141833 0)
(0.995857 0.00429665 0)
(0.994717 0.0026949 0)
(0.993816 0.00636583 0)
(0.993217 0.00489865 0)
(0.998495 -0.000756637 0)
(1.00184 0.000865245 0)
(0.999045 0.00238263 0)
(1.00006 -0.00136238 0)
(0.996538 -0.00195699 0)
(0.997042 0.00144402 0)
(1.0008 0.00422104 0)
(1.00436 0.00241782 0)
(1.00166 0.00292757 0)
(1.00149 -0.000436742 0)
(0.999877 0.000270118 0)
(0.998771 -0.000926164 0)
(0.997836 0.000848873 0)
(0.99743 0.000187751 0)
(0.996934 0.00263607 0)
(0.997305 0.00147628 0)
(0.996769 0.0042937 0)
(0.995741 0.00290681 0)
(0.995146 0.00634892 0)
(0.994711 0.00526687 0)
(0.999234 -0.000744205 0)
(1.00064 0.000821801 0)
(0.999818 0.00241172 0)
(1.00121 -0.00131264 0)
(0.997528 -0.00190811 0)
(0.996592 0.00134839 0)
(1.00044 0.00414828 0)
(1.00378 0.00236136 0)
(1.00208 0.00297568 0)
(1.00201 -0.000402765 0)
(1.00066 0.000355893 0)
(0.999338 -0.000883879 0)
(0.998426 0.000888748 0)
(0.997897 0.00021167 0)
(0.997404 0.00261362 0)
(0.997675 0.00155819 0)
(0.997318 0.00425513 0)
(0.996376 0.00313 0)
(0.995955 0.00630613 0)
(0.995647 0.00559719 0)
(0.999676 -0.000726326 0)
(0.999821 0.000776444 0)
(1.00018 0.00241799 0)
(1.00196 -0.0012667 0)
(0.998322 -0.00184072 0)
(0.996426 0.00127048 0)
(1.00021 0.00407774 0)
(1.00329 0.00229434 0)
(1.00222 0.00300153 0)
(1.00226 -0.000367945 0)
(1.00115 0.000429695 0)
(0.999741 -0.000821839 0)
(0.998835 0.000912383 0)
(0.998216 0.000264402 0)
(0.997709 0.00256919 0)
(0.997887 0.00166661 0)
(0.997616 0.00419442 0)
(0.996748 0.0033551 0)
(0.996415 0.00624867 0)
(0.996202 0.00588895 0)
(0.999947 -0.000704342 0)
(0.999294 0.000730797 0)
(1.00034 0.00240843 0)
(1.00243 -0.00122549 0)
(0.998894 -0.00176237 0)
(0.996412 0.00120679 0)
(1.00005 0.00401016 0)
(1.00293 0.00222323 0)
(1.00221 0.00300995 0)
(1.00235 -0.000330053 0)
(1.00143 0.000487091 0)
(1.00002 -0.000739782 0)
(0.999108 0.000919302 0)
(0.998426 0.00034071 0)
(0.997905 0.00251028 0)
(0.998015 0.00179734 0)
(0.997773 0.00412215 0)
(0.996972 0.00357269 0)
(0.996682 0.00618837 0)
(0.996539 0.00614305 0)
(1.00011 -0.000679679 0)
(0.998987 0.000685655 0)
(1.00039 0.00238855 0)
(1.00269 -0.00118815 0)
(0.999278 -0.00167816 0)
(0.996471 0.00115385 0)
(0.999958 0.00394393 0)
(1.00269 0.00215283 0)
(1.00214 0.00300413 0)
(1.00234 -0.000286777 0)
(1.00158 0.000527101 0)
(1.00022 -0.000639101 0)
(0.999289 0.000910023 0)
(0.99856 0.000438727 0)
(0.998036 0.00244085 0)
(0.998104 0.00194081 0)
(0.997866 0.00404952 0)
(0.997128 0.00377806 0)
(0.99686 0.00613372 0)
(0.996771 0.00635772 0)
(1.0002 -0.000653536 0)
(0.99883 0.00064145 0)
(1.00039 0.00236207 0)
(1.00281 -0.00115327 0)
(0.999525 -0.00159179 0)
(0.996561 0.00110901 0)
(0.999905 0.00387785 0)
(1.00254 0.00208521 0)
(1.00206 0.00298551 0)
(1.0023 -0.000234693 0)
(1.00164 0.000548445 0)
(1.00034 -0.000521545 0)
(0.999414 0.000886763 0)
(0.998645 0.000554645 0)
(0.998129 0.00236442 0)
(0.998177 0.00208873 0)
(0.997938 0.00398573 0)
(0.99726 0.00396669 0)
(0.997006 0.0060883 0)
(0.996962 0.00653456 0)
(1.00025 -0.000626779 0)
(0.998765 0.00059836 0)
(1.00038 0.0023315 0)
(1.00286 -0.00111959 0)
(0.999683 -0.00150612 0)
(0.996661 0.00107072 0)
(0.99988 0.00381004 0)
(1.00244 0.00202223 0)
(1.00198 0.00295516 0)
(1.00224 -0.000171233 0)
(1.00166 0.000551644 0)
(1.00043 -0.00038981 0)
(0.999506 0.000853611 0)
(0.998704 0.000682341 0)
(0.9982 0.00228745 0)
(0.998244 0.00223273 0)
(0.998005 0.00393696 0)
(0.997386 0.00413511 0)
(0.997144 0.00605388 0)
(0.997138 0.00667798 0)
(1.00028 -0.000599987 0)
(0.998753 0.000556606 0)
(1.00035 0.00229814 0)
(1.00286 -0.00108606 0)
(0.999787 -0.00142266 0)
(0.996763 0.00103815 0)
(0.999872 0.00373904 0)
(1.00238 0.00196565 0)
(1.00191 0.00291372 0)
(1.00217 -9.60003e-05 0)
(1.00165 0.000540336 0)
(1.00047 -0.000248682 0)
(0.999578 0.000814689 0)
(0.998754 0.000814273 0)
(0.998259 0.00221867 0)
(0.99831 0.00236407 0)
(0.998074 0.00390672 0)
(0.99751 0.00428145 0)
(0.997284 0.00602926 0)
(0.997311 0.00679007 0)
(1.00029 -0.000573554 0)
(0.998769 0.000516537 0)
(1.00032 0.00226237 0)
(1.00283 -0.00105159 0)
(0.999862 -0.00134287 0)
(0.996865 0.0010108 0)
(0.999873 0.00366381 0)
(1.00233 0.00191645 0)
(1.00184 0.00286112 0)
(1.00209 -9.83167e-06 0)
(1.00164 0.000516417 0)
(1.00049 -0.000100393 0)
(0.999637 0.000774302 0)
(0.998803 0.000942286 0)
(0.998313 0.00216752 0)
(0.998377 0.00247649 0)
(0.998148 0.00389544 0)
(0.997631 0.00440594 0)
(0.997426 0.00601125 0)
(0.99748 0.00687222 0)
(1.0003 -0.00054772 0)
(0.9988 0.00047841 0)
(1.00029 0.00222432 0)
(1.00279 -0.00101559 0)
(0.999921 -0.00126685 0)
(0.996965 0.000989139 0)
(0.999878 0.00358326 0)
(1.0023 0.00187485 0)
(1.00178 0.00279888 0)
(1.00202 8.6213e-05 0)
(1.00162 0.000482572 0)
(1.0005 5.54048e-05 0)
(0.999686 0.000737591 0)
(0.998856 0.0010598 0)
(0.998365 0.00213963 0)
(0.998447 0.00256702 0)
(0.998227 0.00390143 0)
(0.997749 0.00451239 0)
(0.997568 0.00599838 0)
(0.997646 0.00692818 0)
(1.0003 -0.000522734 0)
(0.998837 0.000442633 0)
(1.00027 0.00218374 0)
(1.00274 -0.000977455 0)
(0.999973 -0.00119545 0)
(0.997065 0.000973441 0)
(0.999884 0.00349736 0)
(1.00227 0.00184086 0)
(1.00171 0.00272735 0)
(1.00195 0.000190738 0)
(1.0016 0.000443211 0)
(1.0005 0.000211084 0)
(0.999726 0.00071012 0)
(0.998912 0.00116095 0)
(0.998418 0.00213632 0)
(0.99852 0.00263884 0)
(0.998313 0.00392207 0)
(0.997864 0.00460494 0)
(0.997711 0.00598846 0)
(0.997808 0.00696112 0)
(1.00031 -0.000498709 0)
(0.998877 0.000409688 0)
(1.00024 0.00214035 0)
(1.00269 -0.000936677 0)
(1.00002 -0.00113015 0)
(0.997164 0.000963647 0)
(0.999892 0.00340603 0)
(1.00224 0.00181416 0)
(1.00165 0.00264758 0)
(1.00187 0.000301454 0)
(1.00159 0.000402461 0)
(1.0005 0.000357393 0)
(0.999758 0.00069795 0)
(0.99897 0.00124179 0)
(0.998473 0.00215598 0)
(0.998597 0.00269696 0)
(0.998406 0.00395185 0)
(0.997978 0.00468602 0)
(0.997852 0.00597874 0)
(0.997966 0.00697343 0)
(1.00031 -0.000475736 0)
(0.99892 0.000379949 0)
(1.00021 0.0020937 0)
(1.00263 -0.000893106 0)
(1.00007 -0.00107069 0)
(0.997263 0.000959745 0)
(0.9999 0.00330981 0)
(1.00221 0.00179407 0)
(1.00159 0.00256169 0)
(1.0018 0.000414744 0)
(1.00157 0.000364471 0)
(1.00049 0.000491021 0)
(0.999785 0.000705597 0)
(0.99903 0.00130262 0)
(0.99853 0.00219482 0)
(0.998678 0.00274567 0)
(0.998505 0.00398495 0)
(0.998092 0.00475892 0)
(0.997992 0.00596842 0)
(0.998122 0.00696734 0)
(1.00031 -0.000454063 0)
(0.998963 0.000353812 0)
(1.00018 0.00204329 0)
(1.00258 -0.000846418 0)
(1.00012 -0.00101705 0)
(0.997361 0.000961196 0)
(0.999908 0.0032094 0)
(1.00217 0.00177947 0)
(1.00154 0.00247239 0)
(1.00172 0.00052698 0)
(1.00156 0.000333296 0)
(1.00049 0.000606588 0)
(0.999808 0.000734114 0)
(0.99909 0.0013473 0)
(0.998589 0.00224763 0)
(0.998762 0.00278852 0)
(0.998609 0.00401613 0)
(0.998205 0.0048265 0)
(0.99813 0.00595791 0)
(0.998276 0.00694529 0)
(1.00032 -0.000433705 0)
(0.999006 0.000331559 0)
(1.00015 0.0019889 0)
(1.00252 -0.000796635 0)
(1.00016 -0.000969694 0)
(0.997458 0.000968703 0)
(0.999916 0.00310458 0)
(1.00214 0.00176887 0)
(1.00148 0.00238345 0)
(1.00164 0.000635505 0)
(1.00155 0.000312306 0)
(1.0005 0.00070331 0)
(0.999827 0.000781049 0)
(0.999151 0.00137917 0)
(0.998649 0.00230798 0)
(0.998847 0.00282898 0)
(0.998719 0.00404125 0)
(0.99832 0.00488993 0)
(0.998266 0.00594819 0)
(0.998428 0.00690958 0)
(1.00032 -0.000414751 0)
(0.99905 0.000313415 0)
(1.00012 0.00193058 0)
(1.00247 -0.000743917 0)
(1.00021 -0.000928586 0)
(0.997554 0.000981043 0)
(0.999924 0.00299729 0)
(1.00211 0.00176108 0)
(1.00143 0.00229641 0)
(1.00155 0.000736645 0)
(1.00154 0.000304835 0)
(1.0005 0.000783744 0)
(0.999843 0.000842769 0)
(0.999213 0.00140246 0)
(0.998712 0.00237227 0)
(0.998933 0.00287303 0)
(0.998834 0.00405881 0)
(0.998435 0.00494891 0)
(0.998398 0.00594047 0)
(0.998577 0.00686243 0)
(1.00032 -0.00039735 0)
(0.999093 0.000299778 0)
(1.00009 0.00186802 0)
(1.00241 -0.00068822 0)
(1.00025 -0.000892735 0)
(0.997648 0.000996603 0)
(0.999932 0.00289041 0)
(1.00208 0.00175288 0)
(1.00137 0.00221357 0)
(1.00147 0.000828344 0)
(1.00153 0.000310397 0)
(1.00051 0.000849209 0)
(0.999856 0.000915272 0)
(0.999276 0.00142191 0)
(0.998777 0.00243733 0)
(0.999018 0.00292462 0)
(0.998952 0.00406767 0)
(0.998552 0.00500126 0)
(0.998525 0.00593571 0)
(0.998722 0.00680689 0)
(1.00032 -0.000381454 0)
(0.999136 0.000290669 0)
(1.00007 0.00180135 0)
(1.00235 -0.000629758 0)
(1.00029 -0.000861604 0)
(0.997741 0.00101477 0)
(0.999939 0.00278462 0)
(1.00204 0.00174129 0)
(1.00132 0.00213838 0)
(1.00139 0.000910239 0)
(1.00151 0.000325824 0)
(1.00052 0.000903328 0)
(0.999867 0.000994283 0)
(0.99934 0.0014406 0)
(0.998846 0.00249844 0)
(0.999101 0.00298427 0)
(0.999074 0.00406801 0)
(0.998671 0.00504427 0)
(0.998647 0.00593375 0)
(0.998863 0.0067453 0)
(1.00032 -0.000367057 0)
(0.999177 0.000285885 0)
(1.00004 0.00173131 0)
(1.00229 -0.000569192 0)
(1.00033 -0.000834685 0)
(0.997831 0.00103391 0)
(0.999945 0.00268172 0)
(1.00201 0.00172489 0)
(1.00128 0.00207204 0)
(1.0013 0.000982218 0)
(1.0015 0.000349114 0)
(1.00053 0.00095181 0)
(0.999877 0.00107769 0)
(0.999404 0.00146161 0)
(0.998919 0.00255277 0)
(0.999183 0.00305196 0)
(0.999198 0.00406288 0)
(0.998793 0.00507609 0)
(0.998764 0.00593361 0)
(0.999 0.00667951 0)
(1.00032 -0.000354198 0)
(0.999218 0.000285572 0)
(1.00002 0.00165836 0)
(1.00223 -0.000508007 0)
(1.00037 -0.000809519 0)
(0.99792 0.00105272 0)
(0.99995 0.00258455 0)
(1.00198 0.00170247 0)
(1.00123 0.00201317 0)
(1.00122 0.00104611 0)
(1.00148 0.000378365 0)
(1.00055 0.000997005 0)
(0.999884 0.00116444 0)
(0.999467 0.00148748 0)
(0.998996 0.00259918 0)
(0.999263 0.00312663 0)
(0.999322 0.00405578 0)
(0.998919 0.00509535 0)
(0.998877 0.0059343 0)
(0.999129 0.00661183 0)
(1.00032 -0.000342884 0)
(0.999257 0.000289666 0)
(0.999996 0.00158263 0)
(1.00217 -0.000446497 0)
(1.00041 -0.000786978 0)
(0.998007 0.00106846 0)
(0.999953 0.00249456 0)
(1.00194 0.00167345 0)
(1.00118 0.00196001 0)
(1.00113 0.00110447 0)
(1.00145 0.000410034 0)
(1.00056 0.00103718 0)
(0.99989 0.00125293 0)
(0.99953 0.0015194 0)
(0.999078 0.00263694 0)
(0.999341 0.00320574 0)
(0.999445 0.00404846 0)
(0.999049 0.00510023 0)
(0.998985 0.00593441 0)
(0.999252 0.00654392 0)
(1.00031 -0.0003329 0)
(0.999294 0.000297325 0)
(0.999972 0.00150536 0)
(1.00211 -0.000386238 0)
(1.00045 -0.0007657 0)
(0.998091 0.00107994 0)
(0.999953 0.00241174 0)
(1.0019 0.00163878 0)
(1.00114 0.00191128 0)
(1.00105 0.001161 0)
(1.00143 0.000442592 0)
(1.00058 0.00107138 0)
(0.999894 0.00134219 0)
(0.99959 0.0015578 0)
(0.999165 0.00266601 0)
(0.999418 0.00328674 0)
(0.999565 0.00404272 0)
(0.999184 0.00508943 0)
(0.999091 0.0059317 0)
(0.999368 0.00647644 0)
(1.00031 -0.000324009 0)
(0.999329 0.000307722 0)
(0.999948 0.0014277 0)
(1.00204 -0.000328759 0)
(1.00049 -0.000742311 0)
(0.998174 0.00108642 0)
(0.999952 0.00233693 0)
(1.00187 0.0016013 0)
(1.00109 0.00186472 0)
(1.00096 0.00121761 0)
(1.0014 0.000478339 0)
(1.0006 0.00110075 0)
(0.999897 0.00143255 0)
(0.999646 0.00160321 0)
(0.999256 0.00268695 0)
(0.999493 0.00336713 0)
(0.99968 0.00404206 0)
(0.999321 0.00506396 0)
(0.999194 0.00592393 0)
(0.999475 0.0064102 0)
(1.00031 -0.000316176 0)
(0.999361 0.000320596 0)
(0.999925 0.00135074 0)
(1.00198 -0.000275204 0)
(1.00052 -0.000715807 0)
(0.998255 0.00108551 0)
(0.999948 0.00227021 0)
(1.00183 0.00156208 0)
(1.00105 0.00181798 0)
(1.00088 0.0012744 0)
(1.00137 0.000519239 0)
(1.00062 0.00112554 0)
(0.9999 0.00152358 0)
(0.999699 0.00165642 0)
(0.99935 0.00270073 0)
(0.999569 0.00344363 0)
(0.99979 0.00404966 0)
(0.999461 0.00502686 0)
(0.999296 0.00590979 0)
(0.999574 0.00634612 0)
(1.0003 -0.000309184 0)
(0.999392 0.000335098 0)
(0.9999 0.00127651 0)
(1.00192 -0.000227526 0)
(1.00055 -0.000685423 0)
(0.998333 0.00107663 0)
(0.999941 0.00221076 0)
(1.00179 0.00152238 0)
(1.00101 0.00176923 0)
(1.00079 0.00132947 0)
(1.00134 0.000564668 0)
(1.00065 0.00114429 0)
(0.999903 0.00161264 0)
(0.999747 0.00171709 0)
(0.999448 0.00270814 0)
(0.999645 0.00351222 0)
(0.999892 0.00406539 0)
(0.999602 0.00498069 0)
(0.999398 0.0058885 0)
(0.999664 0.00628496 0)
(1.0003 -0.000302536 0)
(0.99942 0.000350033 0)
(0.999875 0.00120646 0)
(1.00185 -0.000186993 0)
(1.00058 -0.00065057 0)
(0.99841 0.00106115 0)
(0.999932 0.00215678 0)
(1.00175 0.00148621 0)
(1.00098 0.00171885 0)
(1.0007 0.00138094 0)
(1.0013 0.000615401 0)
(1.00068 0.00115805 0)
(0.999908 0.00169726 0)
(0.999789 0.00178467 0)
(0.999548 0.00271048 0)
(0.999723 0.0035705 0)
(0.999987 0.00408763 0)
(0.999742 0.00492692 0)
(0.999502 0.00585961 0)
(0.999745 0.00622826 0)
(1.00029 -0.000296189 0)
(0.999446 0.000364772 0)
(0.999849 0.00114213 0)
(1.00179 -0.000155179 0)
(1.0006 -0.000610109 0)
(0.998484 0.00104119 0)
(0.999921 0.00210496 0)
(1.0017 0.0014552 0)
(1.00094 0.00166926 0)
(1.00062 0.00142862 0)
(1.00126 0.000674368 0)
(1.00071 0.00117104 0)
(0.999914 0.00177665 0)
(0.999826 0.00185946 0)
(0.999648 0.00271043 0)
(0.999804 0.00361788 0)
(1.00007 0.00411565 0)
(0.999881 0.00486609 0)
(0.999607 0.00582155 0)
(0.999817 0.00617795 0)
(1.00029 -0.000289634 0)
(0.99947 0.000377934 0)
(0.999821 0.00108562 0)
(1.00173 -0.000132911 0)
(1.00062 -0.000567069 0)
(0.998555 0.001017 0)
(0.999908 0.00205313 0)
(1.00166 0.00142926 0)
(1.00091 0.00162188 0)
(1.00054 0.00147055 0)
(1.00121 0.000740129 0)
(1.00074 0.00118515 0)
(0.999924 0.00185032 0)
(0.999857 0.00194072 0)
(0.999748 0.00271047 0)
(0.999889 0.00365322 0)
(1.00015 0.00414905 0)
(1.00002 0.00479883 0)
(0.999717 0.00576975 0)
(0.999882 0.00613542 0)
(1.00028 -0.000282553 0)
(0.999491 0.000388249 0)
(0.999792 0.00103849 0)
(1.00166 -0.000120655 0)
(1.00064 -0.000520641 0)
(0.998624 0.000990895 0)
(0.999893 0.00199952 0)
(1.00161 0.00140758 0)
(1.00088 0.00157819 0)
(1.00046 0.00150516 0)
(1.00116 0.000808922 0)
(1.00077 0.00120072 0)
(0.999938 0.00191789 0)
(0.999882 0.00202627 0)
(0.999845 0.00271154 0)
(0.999978 0.00367458 0)
(1.00022 0.0041877 0)
(1.00014 0.00472934 0)
(0.999832 0.00569831 0)
(0.999941 0.00609904 0)
(1.00027 -0.000274715 0)
(0.999511 0.000394681 0)
(0.99976 0.00100168 0)
(1.0016 -0.000117694 0)
(1.00066 -0.000472055 0)
(0.998689 0.000967664 0)
(0.999877 0.00194227 0)
(1.00156 0.00138805 0)
(1.00084 0.00153985 0)
(1.00038 0.00153367 0)
(1.00111 0.000879144 0)
(1.0008 0.00121866 0)
(0.999956 0.00197904 0)
(0.999902 0.00211467 0)
(0.999939 0.00271416 0)
(1.00007 0.00368043 0)
(1.00028 0.0042302 0)
(1.00026 0.00466575 0)
(0.999953 0.00560345 0)
(0.999997 0.00606193 0)
(1.00026 -0.000265554 0)
(0.999529 0.000395677 0)
(0.999725 0.000977437 0)
(1.00153 -0.000122599 0)
(1.00068 -0.000427621 0)
(0.998751 0.00095012 0)
(0.999859 0.00188119 0)
(1.0015 0.0013688 0)
(1.00081 0.00150783 0)
(1.00031 0.00155896 0)
(1.00105 0.000949341 0)
(1.00083 0.00123918 0)
(0.999979 0.00203371 0)
(0.999918 0.00220584 0)
(1.00003 0.00272018 0)
(1.00017 0.00366961 0)
(1.00034 0.00427118 0)
(1.00037 0.00461572 0)
(1.00008 0.00548614 0)
(1.00005 0.00601456 0)
(1.00026 -0.000254838 0)
(0.999547 0.000389775 0)
(0.999689 0.000966174 0)
(1.00147 -0.000134143 0)
(1.0007 -0.000386731 0)
(0.998809 0.000939444 0)
(0.999839 0.00181933 0)
(1.00145 0.00134918 0)
(1.00078 0.00148307 0)
(1.00023 0.00158404 0)
(1.00099 0.00101791 0)
(1.00086 0.00126075 0)
(1.00001 0.00208118 0)
(0.999929 0.00229786 0)
(1.00011 0.00273245 0)
(1.00028 0.00364323 0)
(1.0004 0.0043031 0)
(1.00046 0.00458449 0)
(1.00021 0.0053536 0)
(1.00011 0.0059478 0)
(1.00025 -0.000242014 0)
(0.999564 0.000376094 0)
(0.99965 0.000966162 0)
(1.0014 -0.000148588 0)
(1.00071 -0.000353225 0)
(0.998864 0.000934652 0)
(0.999818 0.00175905 0)
(1.00139 0.0013277 0)
(1.00075 0.00146408 0)
(1.00016 0.00161014 0)
(1.00093 0.00108533 0)
(1.00089 0.00128313 0)
(1.00004 0.00212223 0)
(0.999938 0.00238786 0)
(1.00018 0.00275246 0)
(1.00039 0.00360627 0)
(1.00045 0.00431903 0)
(1.00053 0.00457202 0)
(1.00034 0.00521677 0)
(1.00018 0.00585554 0)
(1.00024 -0.000227468 0)
(0.999581 0.000355288 0)
(0.999609 0.000974902 0)
(1.00133 -0.000161412 0)
(1.00073 -0.000331023 0)
(0.998917 0.000934906 0)
(0.999794 0.00170209 0)
(1.00134 0.00130154 0)
(1.00072 0.00144803 0)
(1.00009 0.00163779 0)
(1.00086 0.00115246 0)
(1.00092 0.001306 0)
(1.00008 0.00215819 0)
(0.999946 0.00247443 0)
(1.00024 0.00277882 0)
(1.0005 0.00356525 0)
(1.00052 0.00431569 0)
(1.00059 0.00457221 0)
(1.00045 0.00508557 0)
(1.00026 0.0057346 0)
(1.00023 -0.000210941 0)
(0.999598 0.000326893 0)
(0.999567 0.000989719 0)
(1.00126 -0.000167581 0)
(1.00074 -0.000321295 0)
(0.998967 0.00093807 0)
(0.999768 0.00165172 0)
(1.00128 0.00126997 0)
(1.0007 0.00143244 0)
(1.00003 0.00166885 0)
(1.00079 0.00122033 0)
(1.00094 0.00132796 0)
(1.00013 0.00218738 0)
(0.999953 0.00255717 0)
(1.0003 0.00280818 0)
(1.00061 0.00352399 0)
(1.00059 0.00429481 0)
(1.00064 0.00457825 0)
(1.00056 0.00497027 0)
(1.00034 0.00558565 0)
(1.00022 -0.000192163 0)
(0.999617 0.000290964 0)
(0.999525 0.0010089 0)
(1.00118 -0.000163731 0)
(1.00076 -0.000324436 0)
(0.999016 0.000941631 0)
(0.999739 0.00161032 0)
(1.00123 0.00123623 0)
(1.00067 0.00141479 0)
(0.999965 0.00170246 0)
(1.00072 0.00129051 0)
(1.00097 0.00134982 0)
(1.00018 0.00220732 0)
(0.999961 0.00263669 0)
(1.00034 0.00283828 0)
(1.00071 0.00348164 0)
(1.00066 0.00425979 0)
(1.00067 0.00458201 0)
(1.00064 0.00488142 0)
(1.00043 0.00541846 0)
(1.0002 -0.000171769 0)
(0.999636 0.000248387 0)
(0.999483 0.00103011 0)
(1.00111 -0.000147542 0)
(1.00077 -0.000336973 0)
(0.999065 0.000943037 0)
(0.999708 0.00157848 0)
(1.00117 0.00120427 0)
(1.00065 0.00139519 0)
(0.999907 0.00173515 0)
(1.00065 0.0013637 0)
(1.00099 0.00137439 0)
(1.00024 0.00221774 0)
(0.99997 0.00271383 0)
(1.00037 0.00287102 0)
(1.00082 0.00343482 0)
(1.00075 0.00421484 0)
(1.00071 0.00457391 0)
(1.00071 0.00482166 0)
(1.0005 0.00525039 0)
(1.00019 -0.00014941 0)
(0.999658 0.000198924 0)
(0.999443 0.00104999 0)
(1.00102 -0.000115929 0)
(1.00079 -0.000358141 0)
(0.999115 0.000936946 0)
(0.999675 0.00155571 0)
(1.00112 0.00117506 0)
(1.00064 0.00137503 0)
(0.999855 0.00176584 0)
(1.00057 0.00143883 0)
(1.00101 0.00140296 0)
(1.00031 0.00221871 0)
(0.999983 0.00278525 0)
(1.00039 0.002911 0)
(1.00092 0.00338055 0)
(1.00084 0.0041634 0)
(1.00074 0.00454919 0)
(1.00075 0.00478561 0)
(1.00057 0.00510066 0)
(1.00018 -0.000125346 0)
(0.999681 0.000144561 0)
(0.999406 0.0010658 0)
(1.00094 -6.93257e-05 0)
(1.00081 -0.000383386 0)
(0.999168 0.000920374 0)
(0.999641 0.00154111 0)
(1.00106 0.0011496 0)
(1.00063 0.00135162 0)
(0.999808 0.00179473 0)
(1.00049 0.00151474 0)
(1.00102 0.0014353 0)
(1.00038 0.00221146 0)
(1 0.00284556 0)
(1.0004 0.00296147 0)
(1.00101 0.00331879 0)
(1.00094 0.00410496 0)
(1.00078 0.00450591 0)
(1.00078 0.00476055 0)
(1.00062 0.00498563 0)
(1.00017 -0.000100617 0)
(0.999706 8.92434e-05 0)
(0.999374 0.00107611 0)
(1.00085 -1.13877e-05 0)
(1.00082 -0.000407861 0)
(0.999225 0.000891738 0)
(0.999607 0.00153214 0)
(1.001 0.00113179 0)
(1.00062 0.00132524 0)
(0.999769 0.00182048 0)
(1.00041 0.00159143 0)
(1.00102 0.00147138 0)
(1.00046 0.00219719 0)
(1.00003 0.00289135 0)
(1.0004 0.00302388 0)
(1.00109 0.00325333 0)
(1.00104 0.00403868 0)
(1.00083 0.00444768 0)
(1.00081 0.00472575 0)
(1.00065 0.004911 0)
(1.00016 -7.52463e-05 0)
(0.999733 3.47745e-05 0)
(0.999346 0.00107788 0)
(1.00076 5.75162e-05 0)
(1.00083 -0.000427414 0)
(0.999285 0.000850294 0)
(0.999575 0.00152519 0)
(1.00094 0.00112144 0)
(1.00062 0.00130034 0)
(0.999739 0.00184278 0)
(1.00033 0.00166695 0)
(1.00103 0.00151133 0)
(1.00054 0.00217716 0)
(1.00007 0.00291876 0)
(1.00039 0.00309797 0)
(1.00116 0.00318908 0)
(1.00116 0.00396061 0)
(1.00089 0.00438836 0)
(1.00084 0.00466516 0)
(1.00067 0.00486632 0)
(1.00014 -5.0184e-05 0)
(0.999761 -1.58716e-05 0)
(0.999325 0.00106903 0)
(1.00066 0.000136381 0)
(1.00084 -0.000437327 0)
(0.99935 0.000798135 0)
(0.999546 0.00151812 0)
(1.00088 0.00111777 0)
(1.00062 0.00127678 0)
(0.999717 0.00186347 0)
(1.00026 0.00174016 0)
(1.00102 0.00155374 0)
(1.00063 0.0021559 0)
(1.00012 0.00292345 0)
(1.00037 0.0031814 0)
(1.00122 0.00313414 0)
(1.00127 0.00385889 0)
(1.00095 0.00433965 0)
(1.00087 0.0045799 0)
(1.00067 0.00483417 0)
(1.00013 -2.57517e-05 0)
(0.999791 -6.31662e-05 0)
(0.99931 0.00104899 0)
(1.00057 0.000221426 0)
(1.00084 -0.000434687 0)
(0.999419 0.000739816 0)
(0.999522 0.00150611 0)
(1.00082 0.00112189 0)
(1.00063 0.00125198 0)
(0.999704 0.00188045 0)
(1.00018 0.00181352 0)
(1.00101 0.00159482 0)
(1.00072 0.00213755 0)
(1.00019 0.00290311 0)
(1.00034 0.00326643 0)
(1.00125 0.0031042 0)
(1.0014 0.00372411 0)
(1.00102 0.00429762 0)
(1.00091 0.00448087 0)
(1.00068 0.00479518 0)
(1.00012 -2.66643e-06 0)
(0.999821 -0.000105621 0)
(0.999303 0.00101553 0)
(1.00047 0.000309853 0)
(1.00084 -0.000416874 0)
(0.999491 0.000679475 0)
(0.999502 0.00148708 0)
(1.00076 0.00113227 0)
(1.00064 0.00122902 0)
(0.999702 0.00189205 0)
(1.00011 0.00188901 0)
(1.00099 0.00163329 0)
(1.0008 0.00212107 0)
(1.00027 0.0028599 0)
(1.00032 0.00333784 0)
(1.00126 0.00311539 0)
(1.00152 0.00356038 0)
(1.00109 0.00424785 0)
(1.00096 0.00438489 0)
(1.00069 0.00473784 0)
(1.0001 1.8776e-05 0)
(0.999851 -0.000140687 0)
(0.999303 0.000969403 0)
(1.00038 0.000396852 0)
(1.00083 -0.000383407 0)
(0.999564 0.000618281 0)
(0.999489 0.00146266 0)
(1.0007 0.00114526 0)
(1.00065 0.00121006 0)
(0.99971 0.00190053 0)
(1.00003 0.00196599 0)
(1.00096 0.0016734 0)
(1.00088 0.00210468 0)
(1.00037 0.00280139 0)
(1.0003 0.00337775 0)
(1.00123 0.00317299 0)
(1.00165 0.00338451 0)
(1.00119 0.00416837 0)
(1.00101 0.00430189 0)
(1.0007 0.00466192 0)
(1.00009 3.87527e-05 0)
(0.99988 -0.000168541 0)
(0.999311 0.000914284 0)
(1.00029 0.00047922 0)
(1.00081 -0.000336798 0)
(0.999639 0.000558168 0)
(0.999482 0.00143338 0)
(1.00064 0.00115742 0)
(1.00067 0.00119191 0)
(0.999729 0.00190395 0)
(0.999966 0.00204308 0)
(1.00092 0.00171714 0)
(1.00095 0.0020881 0)
(1.00048 0.00273671 0)
(1.00031 0.00337326 0)
(1.00118 0.00326512 0)
(1.00175 0.00322693 0)
(1.0013 0.004042 0)
(1.00106 0.00422706 0)
(1.00072 0.00456747 0)
(1.00008 5.64982e-05 0)
(0.999909 -0.000188277 0)
(0.999326 0.00085249 0)
(1.0002 0.000554463 0)
(1.00079 -0.00027977 0)
(0.999713 0.000505693 0)
(0.999483 0.0014 0)
(1.00058 0.00116936 0)
(1.00068 0.00117473 0)
(0.999759 0.00189969 0)
(0.999901 0.00212118 0)
(1.00088 0.00176538 0)
(1.00102 0.00207054 0)
(1.00059 0.00267439 0)
(1.00035 0.0033238 0)
(1.0011 0.00336887 0)
(1.00182 0.00311889 0)
(1.00144 0.00386924 0)
(1.00112 0.00415095 0)
(1.00076 0.00445703 0)
(1.00007 7.20454e-05 0)
(0.999935 -0.000200521 0)
(0.999347 0.000786078 0)
(1.00012 0.000620167 0)
(1.00076 -0.000213506 0)
(0.999785 0.000464076 0)
(0.999489 0.00136402 0)
(1.00052 0.00118144 0)
(1.0007 0.00115838 0)
(0.999802 0.00188656 0)
(0.999843 0.00219981 0)
(1.00083 0.00182275 0)
(1.00107 0.00204984 0)
(1.0007 0.00261952 0)
(1.00041 0.00323586 0)
(1.00103 0.00345868 0)
(1.00184 0.00307588 0)
(1.00158 0.00366665 0)
(1.00121 0.00406124 0)
(1.0008 0.00433524 0)
(1.00006 8.51755e-05 0)
(0.99996 -0.000205323 0)
(0.999375 0.000717242 0)
(1.00005 0.000674364 0)
(1.00072 -0.000140788 0)
(0.999854 0.000430366 0)
(0.999502 0.00132785 0)
(1.00047 0.00119319 0)
(1.00072 0.00114062 0)
(0.999857 0.00186203 0)
(0.999793 0.00227366 0)
(1.00076 0.00189385 0)
(1.00112 0.00202601 0)
(1.00081 0.00257498 0)
(1.00049 0.0031209 0)
(1.00096 0.00350887 0)
(1.00182 0.00309691 0)
(1.00171 0.00346194 0)
(1.00131 0.00394641 0)
(1.00085 0.00420655 0)
(1.00005 9.61207e-05 0)
(0.999982 -0.000203724 0)
(0.999407 0.000648764 0)
(0.999983 0.000715488 0)
(1.00068 -6.45263e-05 0)
(0.99992 0.000404598 0)
(0.99952 0.00129213 0)
(1.00041 0.00120596 0)
(1.00074 0.00112121 0)
(0.999926 0.00182466 0)
(0.999754 0.00233654 0)
(1.00069 0.00197967 0)
(1.00116 0.00200196 0)
(1.00091 0.00254041 0)
(1.00059 0.00299833 0)
(1.00093 0.00350012 0)
(1.00175 0.00317025 0)
(1.00182 0.00328664 0)
(1.00143 0.00379975 0)
(1.00092 0.00407101 0)
(1.00004 0.000104919 0)
(1 -0.000196829 0)
(0.999443 0.000582462 0)
(0.999923 0.000743774 0)
(1.00064 1.49141e-05 0)
(0.999982 0.000387453 0)
(0.999544 0.00125751 0)
(1.00036 0.00122164 0)
(1.00075 0.00110358 0)
(1.00001 0.00177335 0)
(0.999731 0.00238418 0)
(1.0006 0.0020789 0)
(1.00118 0.00198121 0)
(1.00099 0.00250885 0)
(1.0007 0.00288876 0)
(1.00093 0.00342487 0)
(1.00167 0.00326586 0)
(1.00188 0.00316941 0)
(1.00156 0.0036298 0)
(1.00101 0.00392419 0)
(1.00003 0.000111625 0)
(1.00002 -0.000185344 0)
(0.999483 0.000519454 0)
(0.999873 0.000760622 0)
(1.00059 9.46094e-05 0)
(1.00004 0.000378288 0)
(0.999572 0.00122471 0)
(1.00031 0.0012398 0)
(1.00077 0.00109165 0)
(1.0001 0.00170671 0)
(0.999727 0.00240988 0)
(1.00051 0.00219172 0)
(1.00119 0.00197009 0)
(1.00108 0.00247048 0)
(1.00079 0.00280738 0)
(1.00096 0.00329605 0)
(1.00158 0.00333686 0)
(1.0019 0.00311965 0)
(1.00168 0.00345873 0)
(1.00112 0.00376369 0)
(1.00002 0.000116447 0)
(1.00003 -0.000170023 0)
(0.999525 0.000461094 0)
(0.99983 0.000767926 0)
(1.00054 0.000170218 0)
(1.00009 0.000376267 0)